x,T
-0.0099,297.994
-0.00938421,297.192
-0.00886842,296.39
-0.00835263,295.588
-0.00783684,294.786
-0.00732105,293.984
-0.00680526,293.182
-0.00628947,292.379
-0.00577368,291.577
-0.00525789,290.851
-0.00474211,290.502
-0.00422632,290.152
-0.00371053,289.802
-0.00319474,289.452
-0.00267895,289.103
-0.00216316,288.753
-0.00164737,288.403
-0.00113158,288.054
-0.000615789,287.704
-0.0001,287.354
