x,T
-0.0099,298.058
-0.00938421,297.584
-0.00886842,297.109
-0.00835263,296.635
-0.00783684,296.16
-0.00732105,295.686
-0.00680526,295.211
-0.00628947,294.737
-0.00577368,294.262
-0.00525789,293.793
-0.00474211,293.348
-0.00422632,292.903
-0.00371053,292.458
-0.00319474,292.013
-0.00267895,291.569
-0.00216316,291.124
-0.00164737,290.679
-0.00113158,290.234
-0.000615789,289.789
-0.0001,289.344
