# Solver information
# Time        	U_solver      	Ux_initial    	Ux_final      	Ux_iters      	Uy_initial    	Uy_final      	Uy_iters      	Uz_initial    	Uz_final      	Uz_iters      	U_converged   	h_solver      	h_initial     	h_final       	h_iters       	h_converged   	p_rgh_solver  	p_rgh_initial 	p_rgh_final   	p_rgh_iters   	p_rgh_converged	rho_solver    	rho_initial   	rho_final     	rho_iters     	rho_converged 
0.120192      	DILUPBiCGStab	1.000000e+00	3.121750e-02	1	1.000000e+00	2.924630e-02	1	1.000000e+00	1.603030e-02	1	false	DILUPBiCGStab	1.000000e+00	2.086250e-02	1	true	GAMG	8.181040e-01	2.351130e-02	6	true	diagonal	0.000000e+00	0.000000e+00	0	true
0.264006      	DILUPBiCGStab	9.863060e-01	3.774420e-02	1	9.842180e-01	3.283090e-02	1	9.577940e-01	4.443720e-02	1	false	DILUPBiCGStab	6.986620e-01	3.859160e-02	1	true	GAMG	9.603620e-01	3.093180e-02	3	true	diagonal	0.000000e+00	0.000000e+00	0	true
0.394196      	DILUPBiCGStab	9.587410e-01	1.271150e-02	1	9.595150e-01	9.253620e-02	1	9.701390e-01	1.348050e-02	1	false	DILUPBiCGStab	7.963490e-01	2.922060e-02	1	true	GAMG	9.757800e-01	3.096230e-02	3	true	diagonal	0.000000e+00	0.000000e+00	0	true
0.403028      	DILUPBiCGStab	2.424980e-01	1.709660e-02	1	2.346370e-01	1.290480e-02	1	2.492940e-01	1.393700e-02	1	false	DILUPBiCGStab	1.139380e-01	1.932260e-03	1	true	GAMG	7.162020e-01	2.130680e-02	4	true	diagonal	0.000000e+00	0.000000e+00	0	true
0.413402      	DILUPBiCGStab	2.046950e-01	1.564380e-02	1	2.270000e-01	9.608080e-03	1	2.323720e-01	1.073170e-02	1	false	DILUPBiCGStab	1.040510e-01	8.595680e-03	1	true	GAMG	5.014290e-01	1.709080e-02	4	true	diagonal	0.000000e+00	0.000000e+00	0	true
0.425658      	DILUPBiCGStab	1.227540e-01	9.295690e-03	1	1.244340e-01	6.873380e-03	1	1.199730e-01	7.597220e-03	1	false	DILUPBiCGStab	8.954470e-02	5.884340e-03	1	true	GAMG	3.061040e-01	1.351890e-02	3	true	diagonal	0.000000e+00	0.000000e+00	0	true
0.44026       	DILUPBiCGStab	1.056340e-01	7.912290e-03	1	1.082110e-01	5.509560e-03	1	1.047850e-01	5.837990e-03	1	false	DILUPBiCGStab	6.283810e-02	4.362880e-03	1	true	GAMG	2.618450e-01	1.059780e-02	2	true	diagonal	0.000000e+00	0.000000e+00	0	true
0.45774       	DILUPBiCGStab	9.883030e-02	7.307050e-03	1	9.760890e-02	5.388940e-03	1	1.020060e-01	6.118190e-03	1	false	DILUPBiCGStab	5.686670e-02	3.780390e-03	1	true	GAMG	2.483290e-01	1.002880e-02	2	true	diagonal	0.000000e+00	0.000000e+00	0	true
0.478716      	DILUPBiCGStab	9.694830e-02	7.178970e-03	1	9.301980e-02	5.296130e-03	1	1.023930e-01	6.248030e-03	1	false	DILUPBiCGStab	5.396460e-02	3.590160e-03	1	true	GAMG	2.467340e-01	1.034010e-02	2	true	diagonal	0.000000e+00	0.000000e+00	0	true
0.503841      	DILUPBiCGStab	9.677820e-02	7.138350e-03	1	9.090210e-02	5.504620e-03	1	1.034220e-01	6.603500e-03	1	false	DILUPBiCGStab	5.221690e-02	3.531270e-03	1	true	GAMG	2.502120e-01	1.018410e-02	2	true	diagonal	0.000000e+00	0.000000e+00	0	true
0.533934      	DILUPBiCGStab	9.626290e-02	7.194390e-03	1	9.000200e-02	5.682620e-03	1	1.036660e-01	7.020540e-03	1	false	DILUPBiCGStab	5.089100e-02	3.602510e-03	1	true	GAMG	2.464780e-01	9.180680e-03	2	true	diagonal	0.000000e+00	0.000000e+00	0	true
0.569914      	DILUPBiCGStab	9.616570e-02	7.260230e-03	1	9.049680e-02	6.149830e-03	1	1.033860e-01	7.474860e-03	1	false	DILUPBiCGStab	4.959290e-02	3.745400e-03	1	true	GAMG	2.528650e-01	9.960470e-03	2	true	diagonal	0.000000e+00	0.000000e+00	0	true
0.612773      	DILUPBiCGStab	9.586850e-02	7.550140e-03	1	9.160620e-02	6.590120e-03	1	1.027470e-01	7.803090e-03	1	false	DILUPBiCGStab	4.854300e-02	3.912560e-03	1	true	GAMG	2.539190e-01	9.666600e-03	2	true	diagonal	0.000000e+00	0.000000e+00	0	true
0.6639        	DILUPBiCGStab	9.650870e-02	7.995600e-03	1	9.236470e-02	7.302600e-03	1	1.026300e-01	8.325210e-03	1	false	DILUPBiCGStab	4.792280e-02	4.159710e-03	1	true	GAMG	2.597220e-01	1.036160e-02	2	true	diagonal	0.000000e+00	0.000000e+00	0	true
0.724892      	DILUPBiCGStab	9.718300e-02	8.701500e-03	1	9.419270e-02	8.090380e-03	1	1.028550e-01	8.831330e-03	1	false	DILUPBiCGStab	4.764400e-02	4.442120e-03	1	true	GAMG	2.638950e-01	1.013870e-02	2	true	diagonal	0.000000e+00	0.000000e+00	0	true
0.797572      	DILUPBiCGStab	9.801050e-02	9.278190e-03	1	9.447630e-02	9.070690e-03	1	1.037510e-01	9.638910e-03	1	false	DILUPBiCGStab	4.786060e-02	5.478450e-04	1	true	GAMG	2.689600e-01	1.139940e-02	2	true	diagonal	0.000000e+00	0.000000e+00	0	true
0.884319      	DILUPBiCGStab	1.040930e-01	1.029530e-02	1	1.040810e-01	1.029560e-02	1	1.103940e-01	1.088210e-02	1	false	DILUPBiCGStab	4.841100e-02	6.382760e-04	1	true	GAMG	3.058570e-01	6.196920e-03	3	true	diagonal	0.000000e+00	0.000000e+00	0	true
0.98782       	DILUPBiCGStab	1.164850e-01	1.359170e-03	1	1.143090e-01	1.733910e-03	1	1.314420e-01	1.366250e-03	1	false	DILUPBiCGStab	5.008690e-02	7.488670e-04	1	true	GAMG	3.887680e-01	1.478140e-02	3	true	diagonal	0.000000e+00	0.000000e+00	0	true
1.11096       	DILUPBiCGStab	2.184110e-01	2.141710e-02	1	2.101820e-01	1.807550e-02	1	2.761340e-01	3.213040e-03	1	false	DILUPBiCGStab	5.245670e-02	8.610940e-04	1	true	GAMG	6.782610e-01	1.824220e-02	4	true	diagonal	0.000000e+00	0.000000e+00	0	true
1.25752       	DILUPBiCGStab	4.740610e-01	6.634100e-03	1	4.734210e-01	4.604550e-02	1	5.133030e-01	6.395330e-03	1	false	DILUPBiCGStab	5.807060e-02	1.006060e-03	1	true	GAMG	8.710970e-01	2.492720e-02	4	true	diagonal	0.000000e+00	0.000000e+00	0	true
1.42833       	DILUPBiCGStab	7.608010e-01	1.128420e-02	1	7.702490e-01	6.576100e-02	1	8.102800e-01	1.151710e-02	1	false	DILUPBiCGStab	7.503200e-02	1.392080e-03	1	true	GAMG	9.658930e-01	4.781670e-02	3	true	diagonal	0.000000e+00	0.000000e+00	0	true
1.62476       	DILUPBiCGStab	9.694960e-01	1.866130e-02	1	9.648410e-01	1.713520e-02	1	9.658050e-01	2.111160e-02	1	false	DILUPBiCGStab	2.573920e-01	7.806640e-03	1	true	GAMG	9.865310e-01	4.719240e-02	3	true	diagonal	0.000000e+00	0.000000e+00	0	true
1.65584       	DILUPBiCGStab	5.281400e-01	4.246210e-02	1	5.704600e-01	5.887350e-03	1	6.022080e-01	6.203470e-03	1	false	DILUPBiCGStab	7.532340e-02	8.858520e-04	1	true	GAMG	8.447270e-01	3.349760e-02	4	true	diagonal	0.000000e+00	0.000000e+00	0	true
1.69074       	DILUPBiCGStab	4.149960e-01	3.062450e-02	1	3.856870e-01	2.848000e-02	1	4.766060e-01	4.698630e-02	1	false	DILUPBiCGStab	6.103610e-02	8.951370e-04	1	true	GAMG	6.586630e-01	1.849840e-02	5	true	diagonal	0.000000e+00	0.000000e+00	0	true
1.73243       	DILUPBiCGStab	2.125840e-01	1.488610e-02	1	2.363550e-01	2.101060e-02	1	2.810650e-01	2.505870e-02	1	false	DILUPBiCGStab	4.326300e-02	4.323550e-03	1	true	GAMG	6.221290e-01	2.100050e-02	5	true	diagonal	0.000000e+00	0.000000e+00	0	true
1.78226       	DILUPBiCGStab	1.396810e-01	1.207790e-02	1	1.504540e-01	1.148730e-02	1	1.907960e-01	1.626100e-02	1	false	DILUPBiCGStab	4.469950e-02	5.053970e-04	1	true	GAMG	3.881260e-01	1.222340e-02	5	true	diagonal	0.000000e+00	0.000000e+00	0	true
1.8421        	DILUPBiCGStab	1.165450e-01	1.006950e-02	1	1.211540e-01	1.209590e-02	1	1.387830e-01	1.810130e-03	1	false	DILUPBiCGStab	4.252510e-02	4.148550e-03	1	true	GAMG	4.594470e-01	1.979920e-02	4	true	diagonal	0.000000e+00	0.000000e+00	0	true
1.91379       	DILUPBiCGStab	1.220370e-01	1.519840e-03	1	1.235970e-01	1.233000e-02	1	1.316670e-01	1.305850e-03	1	false	DILUPBiCGStab	4.670160e-02	6.461020e-04	1	true	GAMG	3.400590e-01	1.487380e-02	4	true	diagonal	0.000000e+00	0.000000e+00	0	true
1.99962       	DILUPBiCGStab	1.213320e-01	1.209230e-02	1	1.156160e-01	1.361580e-03	1	1.199340e-01	1.877390e-03	1	false	DILUPBiCGStab	5.079940e-02	7.460290e-04	1	true	GAMG	4.675570e-01	1.585550e-02	4	true	diagonal	0.000000e+00	0.000000e+00	0	true
2.10276       	DILUPBiCGStab	1.532200e-01	2.184550e-03	1	1.410050e-01	1.953820e-03	1	1.448090e-01	1.549510e-03	1	false	DILUPBiCGStab	5.689360e-02	9.173160e-04	1	true	GAMG	4.612600e-01	1.554850e-02	4	true	diagonal	0.000000e+00	0.000000e+00	0	true
2.22653       	DILUPBiCGStab	2.458230e-01	2.293490e-02	1	2.369970e-01	1.936380e-02	1	2.612240e-01	4.027770e-03	1	false	DILUPBiCGStab	6.516200e-02	1.113950e-03	1	true	GAMG	7.212170e-01	2.110700e-02	4	true	diagonal	0.000000e+00	0.000000e+00	0	true
2.37441       	DILUPBiCGStab	6.296380e-01	8.795190e-03	1	6.067650e-01	5.636990e-02	1	6.111830e-01	9.492190e-03	1	false	DILUPBiCGStab	7.293560e-02	1.341840e-03	1	true	GAMG	9.328620e-01	2.707430e-02	4	true	diagonal	0.000000e+00	0.000000e+00	0	true
2.54452       	DILUPBiCGStab	8.358730e-01	1.633720e-02	1	8.184920e-01	1.443410e-02	1	8.565510e-01	2.000040e-02	1	false	DILUPBiCGStab	9.709570e-02	1.978590e-03	1	true	GAMG	9.663010e-01	2.741900e-02	4	true	diagonal	0.000000e+00	0.000000e+00	0	true
2.62769       	DILUPBiCGStab	7.728380e-01	6.714410e-02	1	7.754690e-01	5.726520e-02	1	7.471790e-01	6.455190e-02	1	false	DILUPBiCGStab	6.634860e-02	5.134250e-03	1	true	GAMG	9.397810e-01	2.521980e-02	4	true	diagonal	0.000000e+00	0.000000e+00	0	true
2.6933        	DILUPBiCGStab	6.646540e-01	5.783060e-02	1	5.894320e-01	3.802840e-02	1	6.316010e-01	6.061790e-02	1	false	DILUPBiCGStab	4.961310e-02	4.016090e-03	1	true	GAMG	8.777650e-01	2.735430e-02	4	true	diagonal	0.000000e+00	0.000000e+00	0	true
2.77212       	DILUPBiCGStab	5.122270e-01	3.465690e-02	1	5.239670e-01	2.996810e-02	1	5.406210e-01	4.160230e-02	1	false	DILUPBiCGStab	4.776420e-02	2.920240e-03	1	true	GAMG	9.159140e-01	3.104380e-02	4	true	diagonal	0.000000e+00	0.000000e+00	0	true
2.86671       	DILUPBiCGStab	7.475480e-01	5.707410e-02	1	6.734260e-01	4.121660e-02	1	6.842130e-01	6.030960e-02	1	false	DILUPBiCGStab	4.998130e-02	3.422420e-03	1	true	GAMG	9.327850e-01	2.795490e-02	4	true	diagonal	0.000000e+00	0.000000e+00	0	true
2.98021       	DILUPBiCGStab	8.034120e-01	5.673760e-02	1	8.202200e-01	5.417350e-02	1	8.410960e-01	7.663450e-02	1	false	DILUPBiCGStab	6.883780e-02	5.142830e-03	1	true	GAMG	9.538610e-01	2.535500e-02	4	true	diagonal	0.000000e+00	0.000000e+00	0	true
3.11614       	DILUPBiCGStab	9.692940e-01	8.396650e-02	1	9.558450e-01	6.966250e-02	1	9.485940e-01	1.020890e-02	1	false	DILUPBiCGStab	1.271740e-01	1.237510e-02	1	true	GAMG	9.797120e-01	2.892620e-02	4	true	diagonal	0.000000e+00	0.000000e+00	0	true
3.15814       	DILUPBiCGStab	5.654650e-01	4.415020e-02	1	5.850760e-01	3.890790e-02	1	5.946990e-01	5.106070e-02	1	false	DILUPBiCGStab	6.014360e-02	4.298330e-03	1	true	GAMG	8.293560e-01	3.333880e-02	4	true	diagonal	0.000000e+00	0.000000e+00	0	true
3.20583       	DILUPBiCGStab	3.670860e-01	2.691090e-02	1	3.355250e-01	2.235580e-02	1	4.369100e-01	4.143110e-02	1	false	DILUPBiCGStab	4.767630e-02	4.153050e-03	1	true	GAMG	6.959040e-01	3.118070e-02	4	true	diagonal	0.000000e+00	0.000000e+00	0	true
3.26303       	DILUPBiCGStab	2.302120e-01	1.816470e-02	1	2.787440e-01	2.098490e-02	1	3.045030e-01	2.702020e-03	1	false	DILUPBiCGStab	4.244410e-02	3.530580e-03	1	true	GAMG	7.168930e-01	3.321620e-02	4	true	diagonal	0.000000e+00	0.000000e+00	0	true
3.3316        	DILUPBiCGStab	1.983760e-01	1.613900e-02	1	2.301440e-01	1.775090e-02	1	2.484590e-01	3.284790e-03	1	false	DILUPBiCGStab	4.511480e-02	3.803120e-03	1	true	GAMG	7.153320e-01	3.141410e-02	4	true	diagonal	0.000000e+00	0.000000e+00	0	true
3.41399       	DILUPBiCGStab	2.140630e-01	1.804130e-02	1	2.654800e-01	2.148450e-02	1	2.578620e-01	3.050440e-03	1	false	DILUPBiCGStab	4.777440e-02	4.087680e-03	1	true	GAMG	7.407510e-01	3.049040e-02	4	true	diagonal	0.000000e+00	0.000000e+00	0	true
3.51301       	DILUPBiCGStab	2.311970e-01	1.933600e-02	1	2.942780e-01	2.392380e-02	1	2.804370e-01	4.042690e-03	1	false	DILUPBiCGStab	5.246790e-02	4.539520e-03	1	true	GAMG	8.073940e-01	2.788470e-02	4	true	diagonal	0.000000e+00	0.000000e+00	0	true
3.63172       	DILUPBiCGStab	4.937850e-01	4.542740e-02	1	5.692610e-01	5.022790e-02	1	5.256070e-01	8.113530e-03	1	false	DILUPBiCGStab	5.681580e-02	5.538150e-03	1	true	GAMG	9.107120e-01	2.607220e-02	4	true	diagonal	0.000000e+00	0.000000e+00	0	true
3.77418       	DILUPBiCGStab	7.383830e-01	9.293500e-03	1	8.047080e-01	7.912020e-02	1	7.859270e-01	1.318150e-02	1	false	DILUPBiCGStab	6.863950e-02	9.870230e-04	1	true	GAMG	9.679720e-01	4.555370e-02	3	true	diagonal	0.000000e+00	0.000000e+00	0	true
3.93621       	DILUPBiCGStab	9.525080e-01	1.667940e-02	1	9.553900e-01	1.536700e-02	1	9.444360e-01	2.352950e-02	1	false	DILUPBiCGStab	9.646820e-02	2.389430e-03	1	true	GAMG	9.780720e-01	4.785500e-02	3	true	diagonal	0.000000e+00	0.000000e+00	0	true
3.97416       	DILUPBiCGStab	5.436350e-01	3.514780e-02	1	5.667550e-01	3.702750e-02	1	6.689210e-01	6.711640e-03	1	false	DILUPBiCGStab	4.553980e-02	3.292540e-03	1	true	GAMG	8.359230e-01	3.008970e-02	4	true	diagonal	0.000000e+00	0.000000e+00	0	true
4.01638       	DILUPBiCGStab	3.437920e-01	2.471070e-02	1	3.420220e-01	2.160430e-02	1	4.077960e-01	4.339220e-03	1	false	DILUPBiCGStab	3.638840e-02	3.189390e-03	1	true	GAMG	7.064980e-01	3.034910e-02	4	true	diagonal	0.000000e+00	0.000000e+00	0	true
4.06575       	DILUPBiCGStab	1.920780e-01	1.305120e-02	1	2.088680e-01	1.583090e-02	1	2.643810e-01	2.109740e-03	1	false	DILUPBiCGStab	3.147400e-02	1.919290e-03	1	true	GAMG	6.296170e-01	1.778600e-02	5	true	diagonal	0.000000e+00	0.000000e+00	0	true
4.12342       	DILUPBiCGStab	1.545210e-01	1.011750e-02	1	1.725250e-01	1.249750e-02	1	1.839380e-01	1.676190e-02	1	false	DILUPBiCGStab	3.237510e-02	2.120940e-03	1	true	GAMG	6.138980e-01	2.745790e-02	4	true	diagonal	0.000000e+00	0.000000e+00	0	true
4.19187       	DILUPBiCGStab	1.301650e-01	1.006700e-02	1	1.502880e-01	1.153730e-02	1	1.509800e-01	1.491400e-02	1	false	DILUPBiCGStab	3.466840e-02	2.461590e-03	1	true	GAMG	5.531250e-01	2.675160e-02	4	true	diagonal	0.000000e+00	0.000000e+00	0	true
4.27315       	DILUPBiCGStab	1.240170e-01	9.311570e-03	1	1.435580e-01	1.089360e-02	1	1.385800e-01	1.233570e-02	1	false	DILUPBiCGStab	3.870510e-02	3.050470e-03	1	true	GAMG	6.104150e-01	2.220820e-02	4	true	diagonal	0.000000e+00	0.000000e+00	0	true
4.36956       	DILUPBiCGStab	2.109050e-01	1.863260e-02	1	2.311130e-01	1.921190e-02	1	2.138440e-01	2.218020e-03	1	false	DILUPBiCGStab	4.238650e-02	3.644840e-03	1	true	GAMG	7.376950e-01	2.581390e-02	4	true	diagonal	0.000000e+00	0.000000e+00	0	true
4.48354       	DILUPBiCGStab	3.586070e-01	3.297800e-02	1	4.120530e-01	3.493050e-02	1	4.039690e-01	4.582500e-03	1	false	DILUPBiCGStab	4.733520e-02	4.619750e-03	1	true	GAMG	8.848000e-01	2.659590e-02	4	true	diagonal	0.000000e+00	0.000000e+00	0	true
4.61941       	DILUPBiCGStab	7.551790e-01	1.013270e-02	1	7.561610e-01	6.307930e-02	1	7.188350e-01	8.773290e-03	1	false	DILUPBiCGStab	5.001550e-02	7.915550e-04	1	true	GAMG	9.611080e-01	2.751000e-02	4	true	diagonal	0.000000e+00	0.000000e+00	0	true
4.77618       	DILUPBiCGStab	8.885320e-01	1.557240e-02	1	9.171840e-01	1.384830e-02	1	9.355150e-01	1.784310e-02	1	false	DILUPBiCGStab	7.501720e-02	1.715760e-03	1	true	GAMG	9.827340e-01	2.769110e-02	4	true	diagonal	0.000000e+00	0.000000e+00	0	true
4.83129       	DILUPBiCGStab	7.934640e-01	5.526210e-02	1	7.448280e-01	5.118900e-02	1	7.445500e-01	8.732210e-03	1	false	DILUPBiCGStab	3.804380e-02	2.252060e-03	1	true	GAMG	8.993610e-01	3.372230e-02	4	true	diagonal	0.000000e+00	0.000000e+00	0	true
4.89392       	DILUPBiCGStab	5.531300e-01	4.690260e-02	1	6.196860e-01	5.339300e-02	1	6.417110e-01	6.211460e-03	1	false	DILUPBiCGStab	3.862650e-02	2.677840e-03	1	true	GAMG	8.004600e-01	3.381510e-02	4	true	diagonal	0.000000e+00	0.000000e+00	0	true
4.96923       	DILUPBiCGStab	5.660330e-01	4.694390e-02	1	5.582420e-01	3.594360e-02	1	6.025690e-01	5.677040e-02	1	false	DILUPBiCGStab	3.516950e-02	2.101580e-03	1	true	GAMG	8.830240e-01	3.205040e-02	4	true	diagonal	0.000000e+00	0.000000e+00	0	true
5.05946       	DILUPBiCGStab	6.459040e-01	5.279780e-02	1	6.394250e-01	4.165030e-02	1	6.013130e-01	5.166780e-02	1	false	DILUPBiCGStab	3.516170e-02	2.140690e-03	1	true	GAMG	8.913210e-01	3.126690e-02	4	true	diagonal	0.000000e+00	0.000000e+00	0	true
5.16783       	DILUPBiCGStab	6.203230e-01	5.469640e-02	1	6.327650e-01	4.011270e-02	1	6.381060e-01	5.573110e-02	1	false	DILUPBiCGStab	3.849150e-02	2.494580e-03	1	true	GAMG	9.240770e-01	2.804860e-02	4	true	diagonal	0.000000e+00	0.000000e+00	0	true
5.29745       	DILUPBiCGStab	9.005110e-01	8.527120e-02	1	8.827290e-01	5.974960e-02	1	8.437180e-01	7.849700e-02	1	false	DILUPBiCGStab	4.286840e-02	3.147960e-03	1	true	GAMG	9.692350e-01	2.628760e-02	4	true	diagonal	0.000000e+00	0.000000e+00	0	true
5.44559       	DILUPBiCGStab	9.327770e-01	1.482520e-02	1	9.450800e-01	8.830430e-02	1	9.569930e-01	1.363560e-02	1	false	DILUPBiCGStab	6.750740e-02	1.033310e-03	1	true	GAMG	9.802950e-01	2.562900e-02	4	true	diagonal	0.000000e+00	0.000000e+00	0	true
5.48121       	DILUPBiCGStab	6.255530e-01	4.195140e-02	1	5.756480e-01	3.308490e-02	1	5.764900e-01	5.081060e-02	1	false	DILUPBiCGStab	3.669490e-02	2.893140e-03	1	true	GAMG	7.921430e-01	3.271810e-02	4	true	diagonal	0.000000e+00	0.000000e+00	0	true
5.52392       	DILUPBiCGStab	3.136580e-01	1.863600e-02	1	3.202630e-01	2.501890e-02	1	3.820120e-01	2.988260e-02	1	false	DILUPBiCGStab	2.970550e-02	1.771320e-03	1	true	GAMG	6.313310e-01	2.732770e-02	4	true	diagonal	0.000000e+00	0.000000e+00	0	true
5.57517       	DILUPBiCGStab	2.235740e-01	1.320030e-02	1	1.828030e-01	9.813130e-03	1	2.314950e-01	2.136790e-02	1	false	DILUPBiCGStab	2.656790e-02	1.604740e-03	1	true	GAMG	5.606740e-01	2.032900e-02	4	true	diagonal	0.000000e+00	0.000000e+00	0	true
5.63664       	DILUPBiCGStab	1.558720e-01	1.074880e-02	1	1.592930e-01	1.424600e-02	1	1.356510e-01	9.926610e-03	1	false	DILUPBiCGStab	2.661790e-02	1.548660e-03	1	true	GAMG	4.744990e-01	1.544020e-02	4	true	diagonal	0.000000e+00	0.000000e+00	0	true
5.71027       	DILUPBiCGStab	1.192090e-01	9.152550e-03	1	1.088310e-01	7.774410e-03	1	1.169420e-01	1.258410e-03	1	false	DILUPBiCGStab	2.840220e-02	1.839200e-03	1	true	GAMG	4.194940e-01	1.994890e-02	3	true	diagonal	0.000000e+00	0.000000e+00	0	true
5.79875       	DILUPBiCGStab	1.629220e-01	1.439700e-02	1	1.593300e-01	1.811180e-03	1	1.283670e-01	1.188490e-02	1	false	DILUPBiCGStab	3.097910e-02	2.261390e-03	1	true	GAMG	5.267040e-01	1.612240e-02	4	true	diagonal	0.000000e+00	0.000000e+00	0	true
5.90484       	DILUPBiCGStab	1.653340e-01	1.549000e-02	1	1.516850e-01	1.226890e-02	1	1.507890e-01	1.884390e-03	1	false	DILUPBiCGStab	3.418610e-02	2.828850e-03	1	true	GAMG	5.716080e-01	2.700840e-02	3	true	diagonal	0.000000e+00	0.000000e+00	0	true
6.03214       	DILUPBiCGStab	3.736000e-01	4.159900e-03	1	3.436750e-01	2.806820e-02	1	3.127550e-01	3.558170e-03	1	false	DILUPBiCGStab	3.766670e-02	3.445340e-03	1	true	GAMG	8.219630e-01	4.012900e-02	3	true	diagonal	0.000000e+00	0.000000e+00	0	true
6.18268       	DILUPBiCGStab	7.095470e-01	8.656830e-03	1	7.174970e-01	6.075750e-02	1	7.326270e-01	9.453920e-03	1	false	DILUPBiCGStab	4.205850e-02	5.793850e-04	1	true	GAMG	9.510900e-01	4.508280e-02	3	true	diagonal	0.000000e+00	0.000000e+00	0	true
6.35854       	DILUPBiCGStab	9.469860e-01	1.265090e-02	1	9.485320e-01	1.309020e-02	1	9.418990e-01	1.605600e-02	1	false	DILUPBiCGStab	5.255130e-02	8.120710e-04	1	true	GAMG	9.888960e-01	4.507820e-02	3	true	diagonal	0.000000e+00	0.000000e+00	0	true
6.42784       	DILUPBiCGStab	8.580300e-01	9.742950e-03	1	8.778660e-01	1.656750e-02	1	8.825840e-01	1.580070e-02	1	false	DILUPBiCGStab	4.275880e-02	4.980510e-04	1	true	GAMG	9.610870e-01	4.512210e-02	3	true	diagonal	0.000000e+00	0.000000e+00	0	true
6.45027       	DILUPBiCGStab	3.992870e-01	2.975990e-02	1	4.480380e-01	5.481080e-03	1	4.508600e-01	3.809870e-02	1	false	DILUPBiCGStab	1.926930e-02	1.770510e-03	1	true	GAMG	7.097310e-01	2.615450e-02	4	true	diagonal	0.000000e+00	0.000000e+00	0	true
6.47719       	DILUPBiCGStab	2.541000e-01	1.643040e-02	1	2.590010e-01	1.759680e-02	1	2.811120e-01	2.686160e-02	1	false	DILUPBiCGStab	1.643190e-02	1.473120e-03	1	true	GAMG	5.947130e-01	2.075030e-02	4	true	diagonal	0.000000e+00	0.000000e+00	0	true
6.50952       	DILUPBiCGStab	1.260050e-01	1.017070e-02	1	1.348890e-01	1.227770e-03	1	1.267640e-01	9.011490e-03	1	false	DILUPBiCGStab	1.622020e-02	1.563750e-03	1	true	GAMG	3.716940e-01	1.589130e-02	3	true	diagonal	0.000000e+00	0.000000e+00	0	true
6.54828       	DILUPBiCGStab	1.175840e-01	8.968900e-03	1	1.066780e-01	1.047640e-02	1	1.058310e-01	7.875550e-03	1	false	DILUPBiCGStab	1.706810e-02	1.481870e-03	1	true	GAMG	3.164100e-01	1.491310e-02	3	true	diagonal	0.000000e+00	0.000000e+00	0	true
6.59476       	DILUPBiCGStab	1.005210e-01	9.532970e-03	1	9.518650e-02	1.095320e-03	1	9.749200e-02	8.746110e-03	1	false	DILUPBiCGStab	1.835540e-02	1.321680e-03	1	true	GAMG	2.948020e-01	9.455510e-03	3	true	diagonal	0.000000e+00	0.000000e+00	0	true
6.65053       	DILUPBiCGStab	9.799040e-02	9.577700e-03	1	8.904640e-02	1.009440e-03	1	9.650710e-02	8.541290e-03	1	false	DILUPBiCGStab	2.014110e-02	1.208240e-03	1	true	GAMG	2.963060e-01	1.273560e-02	3	true	diagonal	0.000000e+00	0.000000e+00	0	true
6.7175        	DILUPBiCGStab	9.327940e-02	9.323430e-03	1	8.947420e-02	1.177570e-03	1	9.861600e-02	1.448350e-03	1	false	DILUPBiCGStab	2.221540e-02	1.288590e-03	1	true	GAMG	3.113070e-01	1.021740e-02	3	true	diagonal	0.000000e+00	0.000000e+00	0	true
6.79769       	DILUPBiCGStab	9.869600e-02	9.482610e-03	1	9.044620e-02	1.104080e-03	1	9.918010e-02	1.177220e-03	1	false	DILUPBiCGStab	2.466400e-02	1.512030e-03	1	true	GAMG	3.278160e-01	1.565020e-02	3	true	diagonal	0.000000e+00	0.000000e+00	0	true
6.894         	DILUPBiCGStab	1.095660e-01	9.290520e-03	1	1.195720e-01	1.544420e-03	1	1.223510e-01	2.289310e-03	1	false	DILUPBiCGStab	2.746110e-02	1.798170e-03	1	true	GAMG	4.316720e-01	1.400590e-02	3	true	diagonal	0.000000e+00	0.000000e+00	0	true
7.00932       	DILUPBiCGStab	1.944140e-01	1.394560e-02	1	1.894240e-01	2.320940e-03	1	2.058720e-01	1.991930e-02	1	false	DILUPBiCGStab	3.053790e-02	2.105380e-03	1	true	GAMG	6.554370e-01	3.077040e-02	3	true	diagonal	0.000000e+00	0.000000e+00	0	true
7.14771       	DILUPBiCGStab	4.407180e-01	2.871360e-02	1	5.151500e-01	7.317180e-03	1	5.372830e-01	8.707020e-03	1	false	DILUPBiCGStab	3.374350e-02	2.375810e-03	1	true	GAMG	8.954700e-01	3.674110e-02	3	true	diagonal	0.000000e+00	0.000000e+00	0	true
7.31301       	DILUPBiCGStab	8.466740e-01	6.211320e-02	1	8.619440e-01	1.442570e-02	1	8.752280e-01	1.328160e-02	1	false	DILUPBiCGStab	3.904720e-02	2.980080e-03	1	true	GAMG	9.803280e-01	3.964130e-02	3	true	diagonal	0.000000e+00	0.000000e+00	0	true
7.43014       	DILUPBiCGStab	9.169000e-01	6.981760e-02	1	9.262130e-01	1.134520e-02	1	9.307380e-01	1.579710e-02	1	false	DILUPBiCGStab	3.486700e-02	2.887420e-03	1	true	GAMG	9.763810e-01	3.808860e-02	3	true	diagonal	0.000000e+00	0.000000e+00	0	true
7.46018       	DILUPBiCGStab	5.412270e-01	3.441630e-02	1	5.752940e-01	5.086610e-02	1	6.232060e-01	6.199570e-02	1	false	DILUPBiCGStab	2.040390e-02	1.661350e-03	1	true	GAMG	8.382400e-01	2.559110e-02	4	true	diagonal	0.000000e+00	0.000000e+00	0	true
7.49619       	DILUPBiCGStab	4.116010e-01	2.002400e-02	1	4.596450e-01	3.364350e-02	1	4.878520e-01	3.548560e-02	1	false	DILUPBiCGStab	1.451830e-02	8.582690e-04	1	true	GAMG	7.844750e-01	2.918780e-02	4	true	diagonal	0.000000e+00	0.000000e+00	0	true
7.53941       	DILUPBiCGStab	2.038650e-01	1.111130e-02	1	2.301970e-01	1.724030e-02	1	2.376970e-01	1.966060e-02	1	false	DILUPBiCGStab	1.543880e-02	9.205690e-04	1	true	GAMG	5.499950e-01	2.430330e-02	4	true	diagonal	0.000000e+00	0.000000e+00	0	true
7.59122       	DILUPBiCGStab	1.434960e-01	8.550210e-03	1	1.635670e-01	1.144910e-02	1	1.436390e-01	8.733630e-03	1	false	DILUPBiCGStab	1.562400e-02	7.627850e-04	1	true	GAMG	4.492900e-01	1.780650e-02	4	true	diagonal	0.000000e+00	0.000000e+00	0	true
7.6534        	DILUPBiCGStab	1.058470e-01	7.755970e-03	1	1.167890e-01	8.966860e-03	1	1.090020e-01	9.158480e-03	1	false	DILUPBiCGStab	1.689260e-02	7.867680e-04	1	true	GAMG	3.266190e-01	1.183710e-02	3	true	diagonal	0.000000e+00	0.000000e+00	0	true
7.72785       	DILUPBiCGStab	1.101020e-01	7.976830e-03	1	1.153590e-01	8.793780e-03	1	1.132830e-01	8.914340e-03	1	false	DILUPBiCGStab	1.852710e-02	8.602200e-04	1	true	GAMG	3.368580e-01	8.798250e-03	4	true	diagonal	0.000000e+00	0.000000e+00	0	true
7.81734       	DILUPBiCGStab	1.036840e-01	8.214780e-03	1	1.055980e-01	8.315010e-03	1	1.133820e-01	1.132000e-02	1	false	DILUPBiCGStab	2.068750e-02	9.936710e-04	1	true	GAMG	3.397010e-01	1.184960e-02	3	true	diagonal	0.000000e+00	0.000000e+00	0	true
7.92473       	DILUPBiCGStab	1.286800e-01	9.718230e-03	1	1.097480e-01	8.516410e-03	1	1.366650e-01	1.214230e-02	1	false	DILUPBiCGStab	2.320420e-02	1.146940e-03	1	true	GAMG	3.905260e-01	1.239790e-02	4	true	diagonal	0.000000e+00	0.000000e+00	0	true
8.05312       	DILUPBiCGStab	1.763690e-01	1.206970e-02	1	1.484990e-01	1.034300e-02	1	1.923810e-01	1.985220e-03	1	false	DILUPBiCGStab	2.595620e-02	1.363980e-03	1	true	GAMG	5.408260e-01	2.675170e-02	3	true	diagonal	0.000000e+00	0.000000e+00	0	true
8.20718       	DILUPBiCGStab	4.881730e-01	3.420250e-02	1	3.791380e-01	2.323000e-02	1	4.906600e-01	4.426690e-02	1	false	DILUPBiCGStab	2.884340e-02	1.647160e-03	1	true	GAMG	8.430670e-01	2.505300e-02	4	true	diagonal	0.000000e+00	0.000000e+00	0	true
8.39172       	DILUPBiCGStab	7.849370e-01	6.113570e-02	1	7.370120e-01	5.000430e-02	1	8.076360e-01	8.118850e-03	1	false	DILUPBiCGStab	3.305180e-02	2.162440e-03	1	true	GAMG	9.502550e-01	2.676660e-02	4	true	diagonal	0.000000e+00	0.000000e+00	0	true
8.61316       	DILUPBiCGStab	9.585910e-01	7.189560e-02	1	9.448100e-01	6.965210e-02	1	9.546660e-01	1.071020e-02	1	false	DILUPBiCGStab	3.709710e-02	2.783220e-03	1	true	GAMG	9.806640e-01	4.853540e-02	3	true	diagonal	0.000000e+00	0.000000e+00	0	true
8.80824       	DILUPBiCGStab	9.709910e-01	2.347700e-02	1	9.767140e-01	1.842970e-02	1	9.805370e-01	2.164760e-02	1	false	DILUPBiCGStab	9.188400e-02	2.277520e-03	1	true	GAMG	9.900340e-01	4.456750e-02	3	true	diagonal	0.000000e+00	0.000000e+00	0	true
8.8172        	DILUPBiCGStab	3.043620e-01	5.180660e-03	1	2.927410e-01	2.339970e-02	1	3.071790e-01	2.928490e-02	1	false	DILUPBiCGStab	3.158530e-02	3.749930e-04	1	true	GAMG	8.221830e-01	2.768240e-02	4	true	diagonal	0.000000e+00	0.000000e+00	0	true
8.82796       	DILUPBiCGStab	3.837370e-01	2.108450e-02	1	2.879010e-01	1.745340e-02	1	2.846640e-01	2.371570e-02	1	false	DILUPBiCGStab	2.218790e-02	1.546630e-03	1	true	GAMG	6.109910e-01	1.993850e-02	4	true	diagonal	0.000000e+00	0.000000e+00	0	true
8.84086       	DILUPBiCGStab	1.563970e-01	1.241630e-02	1	1.360730e-01	8.226350e-03	1	1.288040e-01	1.074670e-02	1	false	DILUPBiCGStab	2.231150e-02	1.711350e-03	1	true	GAMG	3.541640e-01	1.397430e-02	3	true	diagonal	0.000000e+00	0.000000e+00	0	true
8.85635       	DILUPBiCGStab	1.548580e-01	1.291170e-02	1	1.137090e-01	7.225580e-03	1	1.168200e-01	1.105670e-02	1	false	DILUPBiCGStab	2.075550e-02	1.571770e-03	1	true	GAMG	3.201310e-01	1.476440e-02	3	true	diagonal	0.000000e+00	0.000000e+00	0	true
8.87495       	DILUPBiCGStab	1.231120e-01	1.138750e-02	1	1.031850e-01	7.982150e-03	1	1.057010e-01	9.568260e-03	1	false	DILUPBiCGStab	2.130640e-02	1.679660e-03	1	true	GAMG	2.971670e-01	9.925070e-03	3	true	diagonal	0.000000e+00	0.000000e+00	0	true
8.89726       	DILUPBiCGStab	1.183280e-01	1.077610e-02	1	1.045140e-01	9.194310e-03	1	1.026870e-01	9.766660e-03	1	false	DILUPBiCGStab	2.161260e-02	1.722660e-03	1	true	GAMG	2.896240e-01	8.999910e-03	3	true	diagonal	0.000000e+00	0.000000e+00	0	true
8.92401       	DILUPBiCGStab	1.088770e-01	9.652680e-03	1	1.072220e-01	9.569180e-04	1	1.025470e-01	9.825070e-03	1	false	DILUPBiCGStab	2.236420e-02	1.775550e-03	1	true	GAMG	2.904620e-01	1.043820e-02	3	true	diagonal	0.000000e+00	0.000000e+00	0	true
8.95609       	DILUPBiCGStab	1.030110e-01	9.074650e-03	1	1.118940e-01	1.084720e-03	1	1.029470e-01	1.019690e-02	1	false	DILUPBiCGStab	2.329800e-02	1.838950e-03	1	true	GAMG	2.917590e-01	9.825440e-03	3	true	diagonal	0.000000e+00	0.000000e+00	0	true
8.99457       	DILUPBiCGStab	1.003170e-01	8.900280e-03	1	1.170390e-01	1.186680e-03	1	1.043950e-01	1.032610e-02	1	false	DILUPBiCGStab	2.460670e-02	1.966330e-03	1	true	GAMG	3.009520e-01	1.074840e-02	3	true	diagonal	0.000000e+00	0.000000e+00	0	true
9.04043       	DILUPBiCGStab	9.920110e-02	8.786540e-03	1	1.190790e-01	1.171900e-03	1	1.054070e-01	1.052300e-02	1	false	DILUPBiCGStab	2.616180e-02	2.177530e-03	1	true	GAMG	3.052590e-01	1.036440e-02	3	true	diagonal	0.000000e+00	0.000000e+00	0	true
9.09453       	DILUPBiCGStab	9.688420e-02	8.669660e-03	1	1.194890e-01	1.191180e-02	1	1.033960e-01	9.939940e-04	1	false	DILUPBiCGStab	2.759120e-02	2.477850e-03	1	true	GAMG	3.046210e-01	1.125430e-02	3	true	diagonal	0.000000e+00	0.000000e+00	0	true
9.15815       	DILUPBiCGStab	9.430730e-02	9.080350e-03	1	1.180870e-01	1.201340e-03	1	1.010870e-01	1.081430e-03	1	false	DILUPBiCGStab	2.895140e-02	2.893800e-03	1	true	GAMG	3.013610e-01	9.213500e-03	3	true	diagonal	0.000000e+00	0.000000e+00	0	true
9.23288       	DILUPBiCGStab	9.938450e-02	1.099640e-03	1	1.233900e-01	1.459140e-03	1	1.100060e-01	1.356630e-03	1	false	DILUPBiCGStab	3.004420e-02	3.467510e-04	1	true	GAMG	2.971660e-01	7.947740e-03	3	true	diagonal	0.000000e+00	0.000000e+00	0	true
9.32047       	DILUPBiCGStab	1.152330e-01	1.377510e-03	1	1.657650e-01	2.151580e-03	1	1.439530e-01	2.019910e-03	1	false	DILUPBiCGStab	3.065090e-02	3.861170e-04	1	true	GAMG	4.840950e-01	1.720190e-02	3	true	diagonal	0.000000e+00	0.000000e+00	0	true
9.42229       	DILUPBiCGStab	1.936670e-01	2.231440e-03	1	2.581550e-01	3.580380e-03	1	2.640530e-01	3.779200e-03	1	false	DILUPBiCGStab	3.105110e-02	4.060260e-04	1	true	GAMG	7.199380e-01	2.779770e-02	3	true	diagonal	0.000000e+00	0.000000e+00	0	true
9.53941       	DILUPBiCGStab	4.295170e-01	4.242320e-02	1	6.422850e-01	1.116650e-02	1	5.344040e-01	9.465900e-03	1	false	DILUPBiCGStab	3.126340e-02	4.172550e-04	1	true	GAMG	8.983140e-01	3.541040e-02	3	true	diagonal	0.000000e+00	0.000000e+00	0	true
9.67623       	DILUPBiCGStab	8.102540e-01	9.864390e-03	1	8.844600e-01	1.544190e-02	1	8.684780e-01	1.759830e-02	1	false	DILUPBiCGStab	3.409390e-02	4.885810e-04	1	true	GAMG	9.757220e-01	3.762560e-02	3	true	diagonal	0.000000e+00	0.000000e+00	0	true
9.79689       	DILUPBiCGStab	9.178410e-01	1.623490e-02	1	9.467200e-01	2.904830e-02	1	9.373960e-01	3.002430e-02	1	false	DILUPBiCGStab	4.910090e-02	1.167600e-03	1	true	GAMG	9.754730e-01	3.941840e-02	3	true	diagonal	0.000000e+00	0.000000e+00	0	true