x,T
-0.0099,298.058
-0.00938421,297.585
-0.00886842,297.111
-0.00835263,296.638
-0.00783684,296.165
-0.00732105,295.691
-0.00680526,295.218
-0.00628947,294.745
-0.00577368,294.271
-0.00525789,293.808
-0.00474211,293.392
-0.00422632,292.976
-0.00371053,292.561
-0.00319474,292.145
-0.00267895,291.73
-0.00216316,291.314
-0.00164737,290.899
-0.00113158,290.483
-0.000615789,290.067
-0.0001,289.652
