# Probe 0 (0.01 0.05 0.05)
# Probe 1 (0.09 0.05 0.05)
# Time        0             1            
4.01638       285.652       285.644      
8.39172       285.673       285.608      
11.8908       285.726       285.599      
16.3149       285.811       285.466      
20.9126       285.927       285.363      
24.3205       286.038       285.297      
27.8513       286.087       285.376      
31.5935       285.863       285.18       
35.5342       286.192       285.402      
39.5623       286.171       285.203      
43.6627       286.136       285.322      
47.7376       286.161       285.192      
51.4757       286.762       284.981      
55.2929       285.821       285.336      
58.9988       285.728       284.71       
62.9299       286.199       285.484      
66.9374       286.217       285.382      
70.8142       286.675       285.091      
75.0988       287.064       285.519      
79.1829       287.049       285.454      
82.8957       286.797       285.483      
86.712        286.165       285.51       
90.4386       286.305       285.483      
94.1663       287.074       285.388      
98.3134       286.07        285.798      
102.293       287.03        284.96       
106.071       287.008       286.068      
109.993       286.187       286.063      
113.648       286.669       285.792      
117.696       287.525       285.316      
121.454       286.581       286.07       
125.066       287.504       285.527      
128.873       287.302       285.456      
132.939       287.613       285.802      
136.716       286.013       284.964      
140.274       286.24        285.686      
143.994       285.471       285.141      
148.111       285.892       285.663      
151.595       286.688       284.069      
155.399       286.556       285.24       
159.381       286.186       284.698      
162.564       287.641       285.539      
166.298       284.934       284.881      
170.485       287.243       285.761      
173.683       287.154       285.967      
178.007       286.297       285.435      
181.832       285.975       286.032      
185.634       286.852       285.526      
189.542       286.312       286.09       
193.298       286.656       285.749      
196.89        285.333       285.656      
200.632       286.508       286.056      
204.607       286.981       285.773      
208.668       286.686       285.889      
212.243       286.79        285.007      
215.965       286.041       286.154      
219.572       286.286       285.481      
223.543       287.514       285.606      
227.619       287.015       285.558      
231.457       285.656       285.943      
235.157       285.477       286.157      
239.027       287.527       285.576      
242.91        285.977       285.791      
246.767       287.422       285.312      
