# Probe 0 (0.01 0.05 0.05)
# Probe 1 (0.09 0.05 0.05)
# Time        0             1            
3.35732       285.654       285.647      
7.10657       285.673       285.623      
10.9826       285.738       285.577      
14.5877       285.845       285.52       
18.2924       285.821       285.457      
21.9712       285.991       285.324      
25.77         286.05        285.295      
29.8991       285.916       285.194      
33.5836       285.866       285.148      
37.5711       285.861       285.408      
41.234        285.745       285.162      
45.0431       285.739       285.133      
48.3293       285.684       284.899      
52.0514       285.706       285.43       
55.1659       285.769       285.432      
59.1617       285.793       284.952      
62.7499       285.594       285.892      
66.3307       285.803       285.667      
70.2316       285.818       285.212      
73.9223       285.673       285.512      
77.6191       285.656       285.459      
81.254        285.606       285.42       
85.0714       285.588       285.73       
88.8833       286.419       285.124      
92.4812       285.663       285.621      
96.52         286.114       284.833      
100.215       285.559       285.948      
103.792       285.717       285.252      
107.263       285.287       285.937      
111.084       285.583       285.805      
114.71        285.726       284.812      
118.362       285.623       285.251      
122.079       285.649       285.636      
125.74        285.456       284.823      
129.465       285.57        285.871      
132.957       285.934       284.787      
136.742       285.325       285.573      
140.677       285.894       284.339      
144.268       285.416       285.369      
148.06        285.776       284.939      
151.86        285.603       285.905      
155.206       285.811       286.228      
158.954       285.891       284.737      
162.815       285.393       285.427      
166.452       285.425       286.096      
170.241       285.696       284.901      
174.022       285.665       286.517      
177.887       285.52        285.932      
181.586       285.833       286.009      
185.228       285.235       284.665      
188.777       285.732       286.104      
192.253       285.575       284.995      
195.942       285.459       286.087      
199.338       285.185       284.827      
203.309       285.705       284.789      
207.143       285.911       284.773      
210.931       285.455       285.048      
214.695       285.609       285.236      
218.39        285.699       286.464      
222.029       285.672       285.658      
225.087       285.214       285.744      
229.156       285.463       285.816      
232.863       285.477       285.237      
236.279       285.701       285.831      
239.558       285.46        285.996      
243.183       286.425       285.761      
246.601       285.16        285.745      
