# Solver information
# Time        	h_solver      	h_initial     	h_final       	h_iters       	h_converged   
0.120192      	DICPCG	1.000000e+00	1.697020e-07	2	true
0.206282      	DICPCG	2.488690e-01	2.147500e-08	2	true
0.210338      	DICPCG	9.033760e-03	1.576110e-07	1	true
0.215205      	DICPCG	1.061410e-02	2.221790e-07	1	true
0.221046      	DICPCG	1.242500e-02	3.120740e-07	1	true
0.228056      	DICPCG	1.448320e-02	4.364520e-07	1	true
0.236467      	DICPCG	1.680200e-02	6.075020e-07	1	true
0.246563      	DICPCG	1.939220e-02	8.413390e-07	1	true
0.258679      	DICPCG	2.225040e-02	3.708300e-11	2	true
0.273215      	DICPCG	2.535630e-02	6.085800e-11	2	true
0.290653      	DICPCG	2.869030e-02	9.914290e-11	2	true
0.311576      	DICPCG	3.222840e-02	1.604370e-10	2	true
0.336691      	DICPCG	3.593650e-02	2.580160e-10	2	true
0.366842      	DICPCG	3.974810e-02	4.117340e-10	2	true
0.403014      	DICPCG	4.357240e-02	6.504840e-10	2	true
0.446395      	DICPCG	4.735460e-02	1.018380e-09	2	true
0.498415      	DICPCG	5.104150e-02	1.581310e-09	2	true
0.56076       	DICPCG	5.455310e-02	2.432770e-09	2	true
0.635498      	DICPCG	5.788480e-02	3.718840e-09	2	true
0.725073      	DICPCG	6.097460e-02	5.643640e-09	2	true
0.832484      	DICPCG	6.383850e-02	8.525480e-09	2	true
0.961035      	DICPCG	6.631250e-02	1.273590e-08	2	true
1.11513       	DICPCG	6.862040e-02	1.902860e-08	2	true
1.30028       	DICPCG	7.081040e-02	2.851200e-08	2	true
1.52178       	DICPCG	7.243000e-02	4.200840e-08	2	true
1.54526       	DICPCG	7.070810e-03	7.128020e-07	1	true
1.57305       	DICPCG	8.230630e-03	9.816130e-07	1	true
1.60637       	DICPCG	9.678390e-03	1.215780e-10	2	true
1.64636       	DICPCG	1.135000e-02	2.054980e-10	2	true
1.69431       	DICPCG	1.324910e-02	3.453360e-10	2	true
1.75186       	DICPCG	1.540760e-02	5.790600e-10	2	true
1.82084       	DICPCG	1.781040e-02	9.634700e-10	2	true
1.90363       	DICPCG	2.049300e-02	1.599380e-09	2	true
2.00275       	DICPCG	2.338460e-02	2.622660e-09	2	true
2.12191       	DICPCG	2.660660e-02	4.323670e-09	2	true
2.2649        	DICPCG	2.999900e-02	7.042430e-09	2	true
2.43584       	DICPCG	3.344100e-02	1.127140e-08	2	true
2.62869       	DICPCG	3.499030e-02	1.505780e-08	2	true
2.64726       	DICPCG	3.242670e-03	2.587110e-07	1	true
2.66955       	DICPCG	3.862100e-03	3.697240e-07	1	true
2.69629       	DICPCG	4.591470e-03	5.271900e-07	1	true
2.72838       	DICPCG	5.449000e-03	7.503280e-07	1	true
2.76691       	DICPCG	6.457080e-03	1.078120e-10	2	true
2.81313       	DICPCG	7.626180e-03	1.833670e-10	2	true
2.8686        	DICPCG	8.984840e-03	3.114700e-10	2	true
2.93506       	DICPCG	1.053560e-02	5.251440e-10	2	true
3.01472       	DICPCG	1.231200e-02	8.831710e-10	2	true
3.11031       	DICPCG	1.434430e-02	1.484860e-09	2	true
3.22373       	DICPCG	1.644870e-02	2.402720e-09	2	true
3.35732       	DICPCG	1.863560e-02	3.786600e-09	2	true
3.51415       	DICPCG	2.093610e-02	5.879650e-09	2	true
3.69471       	DICPCG	2.295640e-02	8.569330e-09	2	true
3.80123       	DICPCG	1.304340e-02	1.672920e-09	2	true
3.8424        	DICPCG	4.949190e-03	8.735150e-07	1	true
3.89126       	DICPCG	5.805040e-03	1.551660e-10	2	true
3.94989       	DICPCG	6.868220e-03	2.645480e-10	2	true
4.0203        	DICPCG	8.109670e-03	4.508650e-10	2	true
4.10388       	DICPCG	9.441400e-03	7.411790e-10	2	true
4.20434       	DICPCG	1.109020e-02	1.260610e-09	2	true
4.3225        	DICPCG	1.270250e-02	2.001830e-09	2	true
4.33819       	DICPCG	1.664390e-03	1.122990e-07	1	true
4.35702       	DICPCG	1.990030e-03	1.611410e-07	1	true
4.37963       	DICPCG	2.377250e-03	2.309810e-07	1	true
4.40677       	DICPCG	2.836080e-03	3.305100e-07	1	true
4.4393        	DICPCG	3.377000e-03	4.716030e-07	1	true
4.47831       	DICPCG	4.016400e-03	6.721710e-07	1	true
4.52517       	DICPCG	4.776000e-03	9.590610e-07	1	true
4.58142       	DICPCG	5.667020e-03	2.002100e-10	2	true
4.64903       	DICPCG	6.717610e-03	3.431670e-10	2	true
4.73011       	DICPCG	7.924380e-03	5.829180e-10	2	true
4.82756       	DICPCG	9.341410e-03	9.947660e-10	2	true
4.94416       	DICPCG	1.092550e-02	1.670020e-09	2	true
5.08441       	DICPCG	1.279470e-02	2.838350e-09	2	true
5.25319       	DICPCG	1.492330e-02	4.811970e-09	2	true
5.34295       	DICPCG	7.756860e-03	6.977600e-10	2	true
5.37224       	DICPCG	2.507170e-03	3.154860e-07	1	true
5.40585       	DICPCG	2.859130e-03	4.125640e-07	1	true
5.44617       	DICPCG	3.405640e-03	5.890780e-07	1	true
5.49457       	DICPCG	4.054190e-03	8.411260e-07	1	true
5.55262       	DICPCG	4.814210e-03	1.803350e-10	2	true
5.62232       	DICPCG	5.712200e-03	3.087480e-10	2	true
5.70585       	DICPCG	6.749120e-03	5.243130e-10	2	true
5.80582       	DICPCG	7.944890e-03	8.854820e-10	2	true
5.92578       	DICPCG	9.349050e-03	1.504080e-09	2	true
6.0692        	DICPCG	1.092300e-02	2.519330e-09	2	true
6.23974       	DICPCG	1.264690e-02	4.139570e-09	2	true
6.28463       	DICPCG	3.281310e-03	6.316510e-07	1	true
6.32403       	DICPCG	2.861560e-03	4.838830e-07	1	true
6.37107       	DICPCG	3.392340e-03	6.843400e-07	1	true
6.42684       	DICPCG	3.988440e-03	9.530670e-07	1	true
6.49365       	DICPCG	4.730330e-03	2.338270e-10	2	true
6.57377       	DICPCG	5.605930e-03	3.988620e-10	2	true
6.66974       	DICPCG	6.622570e-03	6.769660e-10	2	true
6.78502       	DICPCG	7.825520e-03	1.156180e-09	2	true
6.91896       	DICPCG	8.920340e-03	1.782310e-09	2	true
6.94457       	DICPCG	1.690950e-03	1.861690e-07	1	true
6.97527       	DICPCG	2.018870e-03	2.663570e-07	1	true
7.01147       	DICPCG	2.367850e-03	3.680200e-07	1	true
7.05471       	DICPCG	2.812260e-03	5.218150e-07	1	true
7.10657       	DICPCG	3.349470e-03	7.447640e-07	1	true
7.1687        	DICPCG	3.978990e-03	1.697530e-10	2	true
7.24331       	DICPCG	4.730850e-03	2.907920e-10	2	true
7.33299       	DICPCG	5.619740e-03	4.996710e-10	2	true
7.44072       	DICPCG	6.656510e-03	8.551700e-10	2	true
7.56983       	DICPCG	7.846880e-03	1.450600e-09	2	true
7.72408       	DICPCG	9.193750e-03	2.432440e-09	2	true
7.90984       	DICPCG	1.082090e-02	4.169230e-09	2	true
8.02454       	DICPCG	6.567540e-03	9.546060e-10	2	true
8.0509        	DICPCG	1.499670e-03	1.699870e-07	1	true
8.08252       	DICPCG	1.792240e-03	2.435730e-07	1	true
8.12045       	DICPCG	2.140180e-03	3.486760e-07	1	true
8.16595       	DICPCG	2.553230e-03	4.985550e-07	1	true
8.22061       	DICPCG	3.047480e-03	7.141830e-07	1	true
8.28615       	DICPCG	3.626640e-03	1.722420e-10	2	true
8.36462       	DICPCG	4.302370e-03	2.911900e-10	2	true
8.45861       	DICPCG	5.097770e-03	4.954440e-10	2	true
8.57113       	DICPCG	6.025960e-03	8.406890e-10	2	true
8.7058        	DICPCG	7.103460e-03	1.421580e-09	2	true
8.86399       	DICPCG	8.199960e-03	2.268730e-09	2	true
8.92267       	DICPCG	3.012730e-03	7.577750e-07	1	true
8.9545        	DICPCG	1.627560e-03	2.227320e-07	1	true
8.99271       	DICPCG	1.945050e-03	3.192110e-07	1	true
9.03857       	DICPCG	2.323720e-03	4.574920e-07	1	true
9.09361       	DICPCG	2.772140e-03	6.543290e-07	1	true
9.15961       	DICPCG	3.301080e-03	9.333470e-07	1	true
9.23882       	DICPCG	3.928410e-03	2.709980e-10	2	true
9.33376       	DICPCG	4.662930e-03	4.605460e-10	2	true
9.44729       	DICPCG	5.510250e-03	7.791600e-10	2	true
9.58253       	DICPCG	6.474330e-03	1.301450e-09	2	true
9.68073       	DICPCG	4.648860e-03	4.905270e-10	2	true
9.72136       	DICPCG	1.913000e-03	3.339260e-07	1	true
9.77018       	DICPCG	2.286920e-03	4.791530e-07	1	true
9.82875       	DICPCG	2.728440e-03	6.853190e-07	1	true
9.89899       	DICPCG	3.249110e-03	9.774310e-07	1	true
9.98335       	DICPCG	3.870580e-03	3.026040e-10	2	true
10.0848       	DICPCG	4.609770e-03	5.183790e-10	2	true
10.2023       	DICPCG	5.275570e-03	7.956000e-10	2	true
10.2409       	DICPCG	1.726180e-03	2.865850e-07	1	true
10.2869       	DICPCG	2.045210e-03	4.037850e-07	1	true
10.342        	DICPCG	2.438450e-03	5.764700e-07	1	true
10.408        	DICPCG	2.903700e-03	8.216310e-07	1	true
10.4873       	DICPCG	3.461990e-03	2.400010e-10	2	true
10.5822       	DICPCG	4.104760e-03	4.041150e-10	2	true
10.6957       	DICPCG	4.862140e-03	6.832950e-10	2	true
10.8294       	DICPCG	5.656400e-03	1.103990e-09	2	true
10.8502       	DICPCG	8.770560e-04	7.857350e-08	1	true
10.8749       	DICPCG	1.038510e-03	1.103690e-07	1	true
10.9045       	DICPCG	1.242020e-03	1.582120e-07	1	true
10.94         	DICPCG	1.484450e-03	2.265930e-07	1	true
10.9826       	DICPCG	1.774600e-03	3.248370e-07	1	true
11.0338       	DICPCG	2.121190e-03	4.658370e-07	1	true
11.095        	DICPCG	2.526190e-03	6.636350e-07	1	true
11.1686       	DICPCG	3.014620e-03	9.500690e-07	1	true
11.2567       	DICPCG	3.582310e-03	3.057180e-10	2	true
11.3608       	DICPCG	4.195660e-03	4.964560e-10	2	true
11.4848       	DICPCG	4.943880e-03	8.267770e-10	2	true
11.6317       	DICPCG	5.785040e-03	1.360390e-09	2	true
11.8009       	DICPCG	6.569560e-03	2.053240e-09	2	true
11.8693       	DICPCG	2.636290e-03	7.729860e-07	1	true
11.9181       	DICPCG	1.873510e-03	3.928280e-07	1	true
11.9768       	DICPCG	2.240850e-03	5.641110e-07	1	true
12.0472       	DICPCG	2.673700e-03	8.067990e-07	1	true
12.1318       	DICPCG	3.193620e-03	2.525930e-10	2	true
12.2308       	DICPCG	3.704390e-03	3.980090e-10	2	true
12.2905       	DICPCG	2.221160e-03	5.687240e-07	1	true
12.3574       	DICPCG	2.476600e-03	7.104230e-07	1	true
12.434        	DICPCG	2.819500e-03	9.255910e-07	1	true
12.5257       	DICPCG	3.350800e-03	3.104010e-10	2	true
12.5958       	DICPCG	2.545370e-03	7.648240e-07	1	true
12.6443       	DICPCG	1.752770e-03	3.648910e-07	1	true
12.6929       	DICPCG	1.752940e-03	3.663510e-07	1	true
12.7512       	DICPCG	2.092480e-03	5.238860e-07	1	true
12.8212       	DICPCG	2.497610e-03	7.495600e-07	1	true
12.9052       	DICPCG	2.978150e-03	2.323090e-10	2	true
13.006        	DICPCG	3.546780e-03	3.954790e-10	2	true
13.1213       	DICPCG	4.023220e-03	5.837210e-10	2	true
13.1432       	DICPCG	7.599020e-04	7.148030e-08	1	true
13.1693       	DICPCG	9.090700e-04	1.024600e-07	1	true
13.2007       	DICPCG	1.087350e-03	1.468630e-07	1	true
13.2384       	DICPCG	1.302530e-03	2.112130e-07	1	true
13.2837       	DICPCG	1.557810e-03	3.029130e-07	1	true
13.3379       	DICPCG	1.860480e-03	4.334190e-07	1	true
13.4031       	DICPCG	2.224030e-03	6.216730e-07	1	true
13.4814       	DICPCG	2.659670e-03	8.930330e-07	1	true
13.5751       	DICPCG	3.157210e-03	3.051720e-10	2	true
13.6871       	DICPCG	3.746090e-03	5.139680e-10	2	true
13.8217       	DICPCG	4.461330e-03	8.764790e-10	2	true
13.9838       	DICPCG	5.305790e-03	1.502020e-09	2	true
14.1643       	DICPCG	5.839860e-03	2.056590e-09	2	true
14.178        	DICPCG	4.410750e-04	2.598270e-08	1	true
14.194        	DICPCG	5.153910e-04	3.551020e-08	1	true
14.2132       	DICPCG	6.168730e-04	5.092800e-08	1	true
14.2362       	DICPCG	7.392710e-04	7.324180e-08	1	true
14.2638       	DICPCG	8.853560e-04	1.052180e-07	1	true
14.2969       	DICPCG	1.060450e-03	1.512440e-07	1	true
14.3365       	DICPCG	1.265050e-03	2.157310e-07	1	true
14.3839       	DICPCG	1.507410e-03	3.071430e-07	1	true
14.4404       	DICPCG	1.789030e-03	4.340120e-07	1	true
14.5077       	DICPCG	2.121040e-03	6.123410e-07	1	true
14.5877       	DICPCG	2.512090e-03	8.627110e-07	1	true
14.6842       	DICPCG	3.004240e-03	3.085260e-10	2	true
14.7988       	DICPCG	3.544480e-03	5.107320e-10	2	true
14.9366       	DICPCG	4.224340e-03	8.722370e-10	2	true
15.0964       	DICPCG	4.843900e-03	1.331520e-09	2	true
15.2064       	DICPCG	3.312400e-03	4.411920e-10	2	true
15.2239       	DICPCG	5.266130e-04	3.979950e-08	1	true
15.2446       	DICPCG	6.203430e-04	5.529390e-08	1	true
15.2691       	DICPCG	7.344420e-04	7.760970e-08	1	true
15.2982       	DICPCG	8.712540e-04	1.093870e-07	1	true
15.3329       	DICPCG	1.033770e-03	1.542820e-07	1	true
15.3744       	DICPCG	1.234470e-03	2.204690e-07	1	true
15.4243       	DICPCG	1.479080e-03	3.172910e-07	1	true
15.4841       	DICPCG	1.768020e-03	4.547160e-07	1	true
15.5556       	DICPCG	2.103940e-03	6.462210e-07	1	true
15.6407       	DICPCG	2.488460e-03	9.078620e-07	1	true
15.7414       	DICPCG	2.924740e-03	3.274590e-10	2	true
15.8601       	DICPCG	3.424240e-03	5.296530e-10	2	true
16.0007       	DICPCG	4.021290e-03	8.655380e-10	2	true
16.1586       	DICPCG	4.471970e-03	1.205780e-09	2	true
16.1877       	DICPCG	8.223530e-04	1.031000e-07	1	true
16.2223       	DICPCG	9.789030e-04	1.463290e-07	1	true
16.2639       	DICPCG	1.170820e-03	2.097140e-07	1	true
16.3139       	DICPCG	1.400790e-03	3.008470e-07	1	true
16.3738       	DICPCG	1.675000e-03	4.312680e-07	1	true
16.4451       	DICPCG	1.985030e-03	6.075840e-07	1	true
16.5298       	DICPCG	2.346760e-03	8.523810e-07	1	true
16.6294       	DICPCG	2.744810e-03	3.018000e-10	2	true
16.7441       	DICPCG	3.137440e-03	4.541570e-10	2	true
16.8772       	DICPCG	3.614990e-03	7.008850e-10	2	true
16.9473       	DICPCG	1.893390e-03	5.692280e-07	1	true
17.0052       	DICPCG	1.561020e-03	3.886790e-07	1	true
17.0306       	DICPCG	6.828950e-04	7.470030e-08	1	true
17.061        	DICPCG	8.169450e-04	1.070540e-07	1	true
17.0974       	DICPCG	9.759840e-04	1.530440e-07	1	true
17.1411       	DICPCG	1.167120e-03	2.192830e-07	1	true
17.1935       	DICPCG	1.396300e-03	3.145770e-07	1	true
17.2564       	DICPCG	1.671770e-03	4.521630e-07	1	true
17.3323       	DICPCG	2.007290e-03	6.539530e-07	1	true
17.4236       	DICPCG	2.401170e-03	9.393430e-07	1	true
17.5334       	DICPCG	2.870730e-03	3.820330e-10	2	true
17.6644       	DICPCG	3.400030e-03	6.388860e-10	2	true
17.8205       	DICPCG	4.016620e-03	1.061650e-09	2	true
18.0094       	DICPCG	4.812660e-03	1.841920e-09	2	true
18.2279       	DICPCG	5.502590e-03	2.791110e-09	2	true
18.2344       	DICPCG	1.639510e-04	4.603900e-09	1	true
18.2422       	DICPCG	1.965540e-04	6.619890e-09	1	true
18.2516       	DICPCG	2.355920e-04	9.515390e-09	1	true
18.2628       	DICPCG	2.823940e-04	1.367990e-08	1	true
18.2763       	DICPCG	3.385430e-04	1.967590e-08	1	true
18.2924       	DICPCG	4.056310e-04	2.827260e-08	1	true
18.3118       	DICPCG	4.858880e-04	4.061060e-08	1	true
18.3351       	DICPCG	5.832000e-04	5.857810e-08	1	true
18.3631       	DICPCG	6.995990e-04	8.441310e-08	1	true
18.3968       	DICPCG	8.399560e-04	1.218760e-07	1	true
18.4373       	DICPCG	1.007660e-03	1.757200e-07	1	true
18.4859       	DICPCG	1.205920e-03	2.521990e-07	1	true
18.5441       	DICPCG	1.438270e-03	3.596100e-07	1	true
18.6135       	DICPCG	1.710360e-03	5.099660e-07	1	true
18.6964       	DICPCG	2.034780e-03	7.241230e-07	1	true
18.7965       	DICPCG	2.442130e-03	2.717180e-10	2	true
18.9158       	DICPCG	2.894270e-03	4.548690e-10	2	true
19.0573       	DICPCG	3.408460e-03	7.480690e-10	2	true
19.2271       	DICPCG	4.055580e-03	1.269960e-09	2	true
19.4262       	DICPCG	4.708000e-03	2.007240e-09	2	true
19.4623       	DICPCG	8.552950e-04	1.334100e-07	1	true
19.5025       	DICPCG	9.462930e-04	1.636040e-07	1	true
19.5507       	DICPCG	1.134420e-03	2.355540e-07	1	true
19.6087       	DICPCG	1.359740e-03	3.391500e-07	1	true
19.6778       	DICPCG	1.615670e-03	4.800550e-07	1	true
19.7609       	DICPCG	1.935910e-03	6.912560e-07	1	true
19.8617       	DICPCG	2.333890e-03	2.642520e-10	2	true
19.9812       	DICPCG	2.752130e-03	4.355740e-10	2	true
20.1246       	DICPCG	3.279670e-03	7.415430e-10	2	true
20.26         	DICPCG	3.076980e-03	6.223120e-10	2	true
20.2804       	DICPCG	4.640590e-04	4.091880e-08	1	true
20.3049       	DICPCG	5.546490e-04	5.852230e-08	1	true
20.3342       	DICPCG	6.645150e-04	8.411000e-08	1	true
20.3693       	DICPCG	7.929710e-04	1.199410e-07	1	true
20.4114       	DICPCG	9.495490e-04	1.722530e-07	1	true
20.4618       	DICPCG	1.134560e-03	2.463530e-07	1	true
20.5224       	DICPCG	1.357480e-03	3.534020e-07	1	true
20.5946       	DICPCG	1.614630e-03	5.012000e-07	1	true
20.681        	DICPCG	1.923350e-03	7.132400e-07	1	true
20.7838       	DICPCG	2.278710e-03	2.685130e-10	2	true
20.9078       	DICPCG	2.732090e-03	4.648820e-10	2	true
21.0539       	DICPCG	3.198470e-03	7.505730e-10	2	true
21.2184       	DICPCG	3.571470e-03	1.055380e-09	2	true
21.2599       	DICPCG	9.017840e-04	1.614280e-07	1	true
21.3061       	DICPCG	9.994930e-04	1.986940e-07	1	true
21.3612       	DICPCG	1.190010e-03	2.822650e-07	1	true
21.4274       	DICPCG	1.423200e-03	4.047130e-07	1	true
21.5068       	DICPCG	1.701200e-03	5.799210e-07	1	true
21.6012       	DICPCG	2.014110e-03	8.154480e-07	1	true
21.7145       	DICPCG	2.404410e-03	3.429800e-10	2	true
21.8278       	DICPCG	2.392780e-03	3.413180e-10	2	true
21.8472       	DICPCG	4.109920e-04	3.450870e-08	1	true
21.8703       	DICPCG	4.854190e-04	4.818590e-08	1	true
21.8979       	DICPCG	5.834620e-04	6.968850e-08	1	true
21.9313       	DICPCG	7.016130e-04	1.008870e-07	1	true
21.9712       	DICPCG	8.368420e-04	1.437160e-07	1	true
22.0192       	DICPCG	1.007450e-03	2.086080e-07	1	true
22.0766       	DICPCG	1.198300e-03	2.956630e-07	1	true
22.1445       	DICPCG	1.417220e-03	4.144350e-07	1	true
22.2261       	DICPCG	1.694840e-03	5.941840e-07	1	true
22.3252       	DICPCG	2.049470e-03	8.713980e-07	1	true
22.4415       	DICPCG	2.394270e-03	3.609050e-10	2	true
22.5836       	DICPCG	2.908900e-03	6.502410e-10	2	true
22.7447       	DICPCG	3.274800e-03	9.356310e-10	2	true
22.8634       	DICPCG	2.402110e-03	3.774430e-10	2	true
22.8979       	DICPCG	6.968300e-04	1.035890e-07	1	true
22.9368       	DICPCG	7.856570e-04	1.318920e-07	1	true
22.9827       	DICPCG	9.232730e-04	1.824680e-07	1	true
23.0372       	DICPCG	1.095140e-03	2.572320e-07	1	true
23.1026       	DICPCG	1.310200e-03	3.690130e-07	1	true
23.1817       	DICPCG	1.577470e-03	5.362920e-07	1	true
23.2774       	DICPCG	1.901450e-03	7.815340e-07	1	true
23.3922       	DICPCG	2.270300e-03	3.341960e-10	2	true
23.5262       	DICPCG	2.633580e-03	5.249770e-10	2	true
23.5876       	DICPCG	1.205100e-03	3.186270e-07	1	true
23.6304       	DICPCG	8.385890e-04	1.547450e-07	1	true
23.6811       	DICPCG	9.917410e-04	2.167710e-07	1	true
23.7411       	DICPCG	1.169160e-03	3.018050e-07	1	true
23.811        	DICPCG	1.360190e-03	4.093270e-07	1	true
23.8959       	DICPCG	1.646080e-03	6.008380e-07	1	true
23.9963       	DICPCG	1.937780e-03	8.349720e-07	1	true
24.1218       	DICPCG	2.410350e-03	4.233300e-10	2	true
24.2681       	DICPCG	2.796530e-03	6.648960e-10	2	true
24.3495       	DICPCG	1.550060e-03	5.419760e-07	1	true
24.3704       	DICPCG	4.000100e-04	3.625560e-08	1	true
24.3947       	DICPCG	4.610890e-04	4.821540e-08	1	true
24.4235       	DICPCG	5.482870e-04	6.824000e-08	1	true
24.4574       	DICPCG	6.441870e-04	9.430070e-08	1	true
24.4991       	DICPCG	7.915520e-04	1.425480e-07	1	true
24.5492       	DICPCG	9.480340e-04	2.047690e-07	1	true
24.6056       	DICPCG	1.064300e-03	2.585190e-07	1	true
24.6713       	DICPCG	1.238620e-03	3.507930e-07	1	true
24.7535       	DICPCG	1.543400e-03	5.457880e-07	1	true
24.8767       	DICPCG	2.303640e-03	3.923900e-10	2	true
25            	DICPCG	2.293520e-03	3.907280e-10	2	true
25.1479       	DICPCG	2.737050e-03	6.672690e-10	2	true
25.3158       	DICPCG	3.086880e-03	9.647380e-10	2	true
25.3383       	DICPCG	4.136440e-04	4.020960e-08	1	true
25.3647       	DICPCG	4.851560e-04	5.538540e-08	1	true
25.3962       	DICPCG	5.771490e-04	7.849430e-08	1	true
25.4339       	DICPCG	6.909290e-04	1.126680e-07	1	true
25.4792       	DICPCG	8.265870e-04	1.615240e-07	1	true
25.5334       	DICPCG	9.887990e-04	2.315460e-07	1	true
25.5985       	DICPCG	1.182820e-03	3.319500e-07	1	true
25.6765       	DICPCG	1.412740e-03	4.745210e-07	1	true
25.77         	DICPCG	1.689230e-03	6.800000e-07	1	true
25.8822       	DICPCG	2.017030e-03	9.721170e-07	1	true
26.0169       	DICPCG	2.410620e-03	4.894560e-10	2	true
26.1737       	DICPCG	2.788260e-03	7.621800e-10	2	true
26.2297       	DICPCG	9.960770e-04	2.405930e-07	1	true
26.2604       	DICPCG	5.451590e-04	7.225650e-08	1	true
26.2973       	DICPCG	6.532720e-04	1.038860e-07	1	true
26.3406       	DICPCG	7.665440e-04	1.432370e-07	1	true
26.3924       	DICPCG	9.139300e-04	2.039320e-07	1	true
26.454        	DICPCG	1.085560e-03	2.882300e-07	1	true
26.5276       	DICPCG	1.292350e-03	4.093260e-07	1	true
26.6155       	DICPCG	1.539130e-03	5.819220e-07	1	true
26.7204       	DICPCG	1.829050e-03	8.240110e-07	1	true
26.8442       	DICPCG	2.150430e-03	3.709490e-10	2	true
26.9927       	DICPCG	2.564260e-03	6.319530e-10	2	true
27.1606       	DICPCG	2.884050e-03	9.057380e-10	2	true
27.2135       	DICPCG	9.077840e-04	2.069500e-07	1	true
27.2597       	DICPCG	7.923930e-04	1.580090e-07	1	true
27.3152       	DICPCG	9.488850e-04	2.269240e-07	1	true
27.3811       	DICPCG	1.125400e-03	3.197890e-07	1	true
27.4602       	DICPCG	1.345790e-03	4.582360e-07	1	true
27.5549       	DICPCG	1.605980e-03	6.541860e-07	1	true
27.6683       	DICPCG	1.914480e-03	9.322230e-07	1	true
27.7988       	DICPCG	2.195010e-03	4.215580e-10	2	true
27.8205       	DICPCG	3.643450e-04	3.410680e-08	1	true
27.8461       	DICPCG	4.303200e-04	4.761390e-08	1	true
27.8768       	DICPCG	5.155870e-04	6.841320e-08	1	true
27.9137       	DICPCG	6.177740e-04	9.832250e-08	1	true
27.958        	DICPCG	7.402900e-04	1.413610e-07	1	true
28.0111       	DICPCG	8.865630e-04	2.030290e-07	1	true
28.0748       	DICPCG	1.061390e-03	2.914620e-07	1	true
28.1512       	DICPCG	1.268700e-03	4.172120e-07	1	true
28.243        	DICPCG	1.519640e-03	5.998600e-07	1	true
28.3529       	DICPCG	1.812010e-03	8.550540e-07	1	true
28.4849       	DICPCG	2.166660e-03	4.240070e-10	2	true
28.6431       	DICPCG	2.582510e-03	7.213350e-10	2	true
28.7041       	DICPCG	9.955010e-04	2.615830e-07	1	true
28.7345       	DICPCG	4.953470e-04	6.492950e-08	1	true
28.771        	DICPCG	5.939540e-04	9.343740e-08	1	true
28.8147       	DICPCG	7.116010e-04	1.342630e-07	1	true
28.8673       	DICPCG	8.529850e-04	1.931630e-07	1	true
28.9304       	DICPCG	1.021240e-03	2.773110e-07	1	true
29.0062       	DICPCG	1.223590e-03	3.988300e-07	1	true
29.0967       	DICPCG	1.456180e-03	5.661260e-07	1	true
29.2044       	DICPCG	1.727210e-03	7.986290e-07	1	true
29.332        	DICPCG	2.035750e-03	3.718330e-10	2	true
29.484        	DICPCG	2.411800e-03	6.215790e-10	2	true
29.6624       	DICPCG	2.813280e-03	9.932960e-10	2	true
29.8637       	DICPCG	3.153200e-03	1.411970e-09	2	true
29.8802       	DICPCG	2.588210e-04	1.841620e-08	1	true
29.8991       	DICPCG	2.958290e-04	2.407930e-08	1	true
29.921        	DICPCG	3.430740e-04	3.242070e-08	1	true
29.9465       	DICPCG	3.986660e-04	4.383660e-08	1	true
29.9763       	DICPCG	4.641030e-04	5.949300e-08	1	true
30.0109       	DICPCG	5.393750e-04	8.047550e-08	1	true
30.0512       	DICPCG	6.249580e-04	1.082030e-07	1	true
30.0981       	DICPCG	7.278260e-04	1.469740e-07	1	true
30.1532       	DICPCG	8.528880e-04	2.021390e-07	1	true
30.2185       	DICPCG	1.007470e-03	2.825190e-07	1	true
30.2967       	DICPCG	1.203190e-03	4.036740e-07	1	true
30.3905       	DICPCG	1.439260e-03	5.787830e-07	1	true
30.5032       	DICPCG	1.722490e-03	8.309270e-07	1	true
30.6377       	DICPCG	2.046560e-03	4.128150e-10	2	true
30.7977       	DICPCG	2.423700e-03	6.885290e-10	2	true
30.9789       	DICPCG	2.729490e-03	9.894100e-10	2	true
31.0023       	DICPCG	3.545510e-04	3.584570e-08	1	true
31.0297       	DICPCG	4.129220e-04	4.865620e-08	1	true
31.0625       	DICPCG	4.945170e-04	6.984450e-08	1	true
31.1019       	DICPCG	5.924230e-04	1.003380e-07	1	true
31.1491       	DICPCG	7.097900e-04	1.441960e-07	1	true
31.2058       	DICPCG	8.489030e-04	2.065300e-07	1	true
31.2736       	DICPCG	1.015250e-03	2.958510e-07	1	true
31.355        	DICPCG	1.215170e-03	4.246000e-07	1	true
31.4526       	DICPCG	1.452480e-03	6.079110e-07	1	true
31.57         	DICPCG	1.740250e-03	8.748550e-07	1	true
31.7107       	DICPCG	2.076510e-03	4.582740e-10	2	true
31.8726       	DICPCG	2.377110e-03	6.915560e-10	2	true
31.9569       	DICPCG	1.236530e-03	4.474410e-07	1	true
31.9838       	DICPCG	3.949440e-04	4.581010e-08	1	true
32.0154       	DICPCG	4.621670e-04	6.279090e-08	1	true
32.053        	DICPCG	5.503820e-04	8.914130e-08	1	true
32.0982       	DICPCG	6.602790e-04	1.284360e-07	1	true
32.1524       	DICPCG	7.909330e-04	1.845190e-07	1	true
32.2176       	DICPCG	9.476890e-04	2.652770e-07	1	true
32.2956       	DICPCG	1.131860e-03	3.790350e-07	1	true
32.3883       	DICPCG	1.341150e-03	5.332460e-07	1	true
32.4977       	DICPCG	1.577110e-03	7.392230e-07	1	true
32.6273       	DICPCG	1.861330e-03	3.502690e-10	2	true
32.7784       	DICPCG	2.158430e-03	5.493620e-10	2	true
32.9506       	DICPCG	2.447670e-03	8.067680e-10	2	true
32.9869       	DICPCG	5.162740e-04	8.058990e-08	1	true
33.0098       	DICPCG	3.265460e-04	3.229530e-08	1	true
33.0374       	DICPCG	3.912020e-04	4.639290e-08	1	true
33.0704       	DICPCG	4.691520e-04	6.678070e-08	1	true
33.1101       	DICPCG	5.617330e-04	9.582380e-08	1	true
33.1577       	DICPCG	6.729720e-04	1.376730e-07	1	true
33.2147       	DICPCG	8.060520e-04	1.977370e-07	1	true
33.2833       	DICPCG	9.651670e-04	2.838990e-07	1	true
33.3656       	DICPCG	1.157170e-03	4.087540e-07	1	true
33.4646       	DICPCG	1.387220e-03	5.885930e-07	1	true
33.5836       	DICPCG	1.660870e-03	8.456830e-07	1	true
33.7263       	DICPCG	1.984840e-03	4.531670e-10	2	true
33.8891       	DICPCG	2.252470e-03	6.663030e-10	2	true
33.9307       	DICPCG	5.769650e-04	1.033370e-07	1	true
33.9775       	DICPCG	6.484010e-04	1.306450e-07	1	true
34.032        	DICPCG	7.530230e-04	1.764490e-07	1	true
34.0952       	DICPCG	8.705300e-04	2.360920e-07	1	true
34.1695       	DICPCG	1.023050e-03	3.265180e-07	1	true
34.256        	DICPCG	1.188150e-03	4.410520e-07	1	true
34.3563       	DICPCG	1.373930e-03	5.907510e-07	1	true
34.3945       	DICPCG	5.240530e-04	8.626920e-08	1	true
34.4404       	DICPCG	6.279480e-04	1.240130e-07	1	true
34.4954       	DICPCG	7.509830e-04	1.775960e-07	1	true
34.5614       	DICPCG	8.995150e-04	2.551550e-07	1	true
34.6405       	DICPCG	1.077120e-03	3.664360e-07	1	true
34.7354       	DICPCG	1.286720e-03	5.238400e-07	1	true
34.8493       	DICPCG	1.541520e-03	7.533100e-07	1	true
34.9858       	DICPCG	1.840560e-03	3.871290e-10	2	true
35.149        	DICPCG	2.191560e-03	6.559840e-10	2	true
35.2828       	DICPCG	1.791720e-03	3.624430e-10	2	true
35.3133       	DICPCG	4.094700e-04	5.388870e-08	1	true
35.3499       	DICPCG	4.906290e-04	7.742340e-08	1	true
35.3939       	DICPCG	5.885950e-04	1.115210e-07	1	true
35.4466       	DICPCG	7.043860e-04	1.598720e-07	1	true
35.5099       	DICPCG	8.437190e-04	2.296450e-07	1	true
35.5858       	DICPCG	1.009390e-03	3.291560e-07	1	true
35.677        	DICPCG	1.210680e-03	4.743260e-07	1	true
35.7863       	DICPCG	1.446620e-03	6.785620e-07	1	true
35.9121       	DICPCG	1.658350e-03	8.940410e-07	1	true
36.0007       	DICPCG	1.166340e-03	4.437810e-07	1	true
36.0273       	DICPCG	3.497840e-04	4.005250e-08	1	true
36.0592       	DICPCG	4.196250e-04	5.770260e-08	1	true
36.097        	DICPCG	4.963860e-04	8.083520e-08	1	true
36.142        	DICPCG	5.903860e-04	1.144780e-07	1	true
36.1955       	DICPCG	7.010060e-04	1.615910e-07	1	true
36.2591       	DICPCG	8.319650e-04	2.279030e-07	1	true
36.3342       	DICPCG	9.799460e-04	3.166540e-07	1	true
36.4218       	DICPCG	1.140510e-03	4.296490e-07	1	true
36.5231       	DICPCG	1.315510e-03	5.727810e-07	1	true
36.6403       	DICPCG	1.516360e-03	7.628420e-07	1	true
36.7752       	DICPCG	1.739400e-03	3.576980e-10	2	true
36.9346       	DICPCG	2.043630e-03	5.831800e-10	2	true
37.0002       	DICPCG	8.423240e-04	2.379850e-07	1	true
37.0352       	DICPCG	4.481260e-04	6.748930e-08	1	true
37.0769       	DICPCG	5.338260e-04	9.586100e-08	1	true
37.127        	DICPCG	6.403320e-04	1.380750e-07	1	true
37.1871       	DICPCG	7.674650e-04	1.985850e-07	1	true
37.2591       	DICPCG	9.162370e-04	2.834270e-07	1	true
37.3452       	DICPCG	1.092790e-03	4.038280e-07	1	true
37.4481       	DICPCG	1.301820e-03	5.742400e-07	1	true
37.5711       	DICPCG	1.551310e-03	8.172810e-07	1	true
37.7092       	DICPCG	1.733020e-03	3.723850e-10	2	true
37.7318       	DICPCG	2.839380e-04	2.761620e-08	1	true
37.7578       	DICPCG	3.255040e-04	3.633810e-08	1	true
37.7889       	DICPCG	3.903310e-04	5.231750e-08	1	true
37.8262       	DICPCG	4.671220e-04	7.502490e-08	1	true
37.871        	DICPCG	5.588120e-04	1.075270e-07	1	true
37.9247       	DICPCG	6.686950e-04	1.542250e-07	1	true
37.9892       	DICPCG	8.027110e-04	2.226480e-07	1	true
38.0667       	DICPCG	9.607220e-04	3.195850e-07	1	true
38.16         	DICPCG	1.152370e-03	4.608710e-07	1	true
38.2717       	DICPCG	1.375830e-03	6.586580e-07	1	true
38.4049       	DICPCG	1.634880e-03	9.327840e-07	1	true
38.5638       	DICPCG	1.939280e-03	5.494040e-10	2	true
38.6331       	DICPCG	8.459380e-04	2.516130e-07	1	true
38.6606       	DICPCG	3.359000e-04	3.975460e-08	1	true
38.6937       	DICPCG	4.030000e-04	5.725840e-08	1	true
38.7333       	DICPCG	4.829660e-04	8.229270e-08	1	true
38.7809       	DICPCG	5.778850e-04	1.179170e-07	1	true
38.8378       	DICPCG	6.911180e-04	1.688220e-07	1	true
38.9063       	DICPCG	8.294220e-04	2.434350e-07	1	true
38.9885       	DICPCG	9.930850e-04	3.494710e-07	1	true
39.0868       	DICPCG	1.185090e-03	4.985120e-07	1	true
39.2041       	DICPCG	1.410240e-03	7.073680e-07	1	true
39.3444       	DICPCG	1.678930e-03	3.702680e-10	2	true
39.5034       	DICPCG	1.896660e-03	5.364970e-10	2	true
39.5276       	DICPCG	2.897410e-04	3.019060e-08	1	true
39.5556       	DICPCG	3.343610e-04	4.024430e-08	1	true
39.589        	DICPCG	3.980000e-04	5.708400e-08	1	true
39.6289       	DICPCG	4.751560e-04	8.145630e-08	1	true
39.6767       	DICPCG	5.684670e-04	1.167410e-07	1	true
39.7337       	DICPCG	6.772690e-04	1.659320e-07	1	true
39.8017       	DICPCG	8.058390e-04	2.352520e-07	1	true
39.882        	DICPCG	9.498030e-04	3.273220e-07	1	true
39.9766       	DICPCG	1.115850e-03	4.525140e-07	1	true
40.0867       	DICPCG	1.296370e-03	6.118860e-07	1	true
40.2155       	DICPCG	1.510670e-03	8.325660e-07	1	true
40.3615       	DICPCG	1.707940e-03	4.089590e-10	2	true
40.446        	DICPCG	9.883260e-04	3.583940e-07	1	true
40.4918       	DICPCG	5.341850e-04	1.048880e-07	1	true
40.5467       	DICPCG	6.413110e-04	1.512520e-07	1	true
40.6128       	DICPCG	7.700880e-04	2.182690e-07	1	true
40.6924       	DICPCG	9.248060e-04	3.151480e-07	1	true
40.7874       	DICPCG	1.101460e-03	4.476230e-07	1	true