x,T
-0.0099,297.955
-0.00938421,296.952
-0.00886842,295.949
-0.00835263,294.945
-0.00783684,293.942
-0.00732105,292.938
-0.00680526,291.935
-0.00628947,290.932
-0.00577368,289.928
-0.00525789,289.05
-0.00474211,288.793
-0.00422632,288.535
-0.00371053,288.277
-0.00319474,288.019
-0.00267895,287.761
-0.00216316,287.504
-0.00164737,287.246
-0.00113158,286.988
-0.000615789,286.73
-0.0001,286.472
