# Solver information
# Time        	h_solver      	h_initial     	h_final       	h_iters       	h_converged   
0.120192      	DICPCG	1.000000e+00	1.837860e-07	2	true
0.264006      	DICPCG	3.554230e-01	9.395980e-08	2	true
0.394196      	DICPCG	1.852180e-01	3.991640e-08	2	true
0.403028      	DICPCG	1.026320e-02	4.065610e-07	1	true
0.413402      	DICPCG	1.177130e-02	5.476250e-07	1	true
0.425658      	DICPCG	1.353170e-02	7.435940e-07	1	true
0.44026       	DICPCG	1.562010e-02	4.107060e-11	2	true
0.45774       	DICPCG	1.803090e-02	6.797640e-11	2	true
0.478716      	DICPCG	2.074750e-02	1.126960e-10	2	true
0.503841      	DICPCG	2.368270e-02	1.846660e-10	2	true
0.533934      	DICPCG	2.685510e-02	3.006680e-10	2	true
0.569914      	DICPCG	3.018230e-02	4.834880e-10	2	true
0.612773      	DICPCG	3.355210e-02	7.635250e-10	2	true
0.6639        	DICPCG	3.706990e-02	1.202250e-09	2	true
0.724892      	DICPCG	4.064390e-02	1.879750e-09	2	true
0.797572      	DICPCG	4.416700e-02	2.907290e-09	2	true
0.884319      	DICPCG	4.770210e-02	4.485550e-09	2	true
0.98782       	DICPCG	5.110940e-02	6.863990e-09	2	true
1.11096       	DICPCG	5.421240e-02	1.034460e-08	2	true
1.25752       	DICPCG	5.713940e-02	1.551280e-08	2	true
1.42833       	DICPCG	5.868110e-02	2.173220e-08	2	true
1.62476       	DICPCG	5.931320e-02	2.917430e-08	2	true
1.65584       	DICPCG	8.744020e-03	1.039140e-10	2	true
1.69074       	DICPCG	9.620720e-03	1.441550e-10	2	true
1.73243       	DICPCG	1.123710e-02	2.406950e-10	2	true
1.78226       	DICPCG	1.307390e-02	4.003110e-10	2	true
1.8421        	DICPCG	1.522250e-02	6.733730e-10	2	true
1.91379       	DICPCG	1.759380e-02	1.119250e-09	2	true
1.99962       	DICPCG	2.020400e-02	1.845590e-09	2	true
2.10276       	DICPCG	2.315080e-02	3.062270e-09	2	true
2.22653       	DICPCG	2.630900e-02	5.026430e-09	2	true
2.37441       	DICPCG	2.955730e-02	8.089790e-09	2	true
2.54452       	DICPCG	3.178070e-02	1.154570e-08	2	true
2.62769       	DICPCG	1.479410e-02	1.264790e-09	2	true
2.6933        	DICPCG	1.134540e-02	6.015010e-10	2	true
2.77212       	DICPCG	1.326470e-02	1.017120e-09	2	true
2.86671       	DICPCG	1.542040e-02	1.706730e-09	2	true
2.98021       	DICPCG	1.783530e-02	2.850530e-09	2	true
3.11614       	DICPCG	2.046950e-02	4.707040e-09	2	true
3.15814       	DICPCG	6.156580e-03	1.329200e-10	2	true
3.20583       	DICPCG	6.889910e-03	1.918910e-10	2	true
3.26303       	DICPCG	8.127650e-03	3.261590e-10	2	true
3.3316        	DICPCG	9.553470e-03	5.518670e-10	2	true
3.41399       	DICPCG	1.121670e-02	9.373870e-10	2	true
3.51301       	DICPCG	1.312050e-02	1.587760e-09	2	true
3.63172       	DICPCG	1.524110e-02	2.658770e-09	2	true
3.77418       	DICPCG	1.763110e-02	4.444350e-09	2	true
3.93621       	DICPCG	1.924830e-02	6.293440e-09	2	true
3.97416       	DICPCG	4.406240e-03	7.483410e-07	1	true
4.01638       	DICPCG	4.851590e-03	9.162110e-07	1	true
4.06575       	DICPCG	5.607690e-03	1.668250e-10	2	true
4.12342       	DICPCG	6.462420e-03	2.625580e-10	2	true
4.19187       	DICPCG	7.550950e-03	4.328410e-10	2	true
4.27315       	DICPCG	8.804260e-03	7.130770e-10	2	true
4.36956       	DICPCG	1.022240e-02	1.167310e-09	2	true
4.48354       	DICPCG	1.179200e-02	1.887200e-09	2	true
4.61941       	DICPCG	1.366110e-02	3.116780e-09	2	true
4.77618       	DICPCG	1.526060e-02	4.648540e-09	2	true
4.83129       	DICPCG	5.257940e-03	1.944170e-10	2	true
4.89392       	DICPCG	5.902300e-03	2.821540e-10	2	true
4.96923       	DICPCG	6.993770e-03	4.840420e-10	2	true
5.05946       	DICPCG	8.237540e-03	8.203800e-10	2	true
5.16783       	DICPCG	9.696160e-03	1.396890e-09	2	true
5.29745       	DICPCG	1.132590e-02	2.341680e-09	2	true
5.44559       	DICPCG	1.260040e-02	3.411270e-09	2	true
5.48121       	DICPCG	2.986770e-03	4.763960e-07	1	true
5.52392       	DICPCG	3.555030e-03	6.794260e-07	1	true
5.57517       	DICPCG	4.228590e-03	9.689020e-07	1	true
5.63664       	DICPCG	5.018830e-03	2.303960e-10	2	true
5.71027       	DICPCG	5.937100e-03	3.914200e-10	2	true
5.79875       	DICPCG	7.031430e-03	6.708420e-10	2	true
5.90484       	DICPCG	8.285060e-03	1.139080e-09	2	true
6.03214       	DICPCG	9.741110e-03	1.934620e-09	2	true
6.18268       	DICPCG	1.124900e-02	3.134550e-09	2	true
6.35854       	DICPCG	1.278880e-02	4.880620e-09	2	true
6.42784       	DICPCG	4.955930e-03	2.885400e-10	2	true
6.45027       	DICPCG	1.594520e-03	1.604270e-07	1	true
6.47719       	DICPCG	1.906250e-03	2.300960e-07	1	true
6.50952       	DICPCG	2.277930e-03	3.299580e-07	1	true
6.54828       	DICPCG	2.716110e-03	4.714680e-07	1	true
6.59476       	DICPCG	3.234610e-03	6.726570e-07	1	true
6.65053       	DICPCG	3.850350e-03	9.599160e-07	1	true
6.7175        	DICPCG	4.579070e-03	2.486560e-10	2	true
6.79769       	DICPCG	5.420780e-03	4.225380e-10	2	true
6.894         	DICPCG	6.423420e-03	7.234440e-10	2	true
7.00932       	DICPCG	7.570100e-03	1.225530e-09	2	true
7.14771       	DICPCG	8.914930e-03	2.085350e-09	2	true
7.31301       	DICPCG	1.041620e-02	3.489670e-09	2	true
7.43014       	DICPCG	7.248110e-03	1.208560e-09	2	true
7.46018       	DICPCG	1.844370e-03	2.483460e-07	1	true
7.49619       	DICPCG	2.201490e-03	3.552540e-07	1	true
7.53941       	DICPCG	2.627200e-03	5.083610e-07	1	true
7.59122       	DICPCG	3.128840e-03	7.251520e-07	1	true
7.6534        	DICPCG	3.725280e-03	1.736510e-10	2	true
7.72785       	DICPCG	4.419400e-03	2.957120e-10	2	true
7.81734       	DICPCG	5.253980e-03	5.086890e-10	2	true
7.92473       	DICPCG	6.222530e-03	8.689750e-10	2	true
8.05312       	DICPCG	7.324580e-03	1.465540e-09	2	true
8.20718       	DICPCG	8.630260e-03	2.495360e-09	2	true
8.39172       	DICPCG	1.011740e-02	4.215320e-09	2	true
8.61316       	DICPCG	1.183820e-02	7.138740e-09	2	true
8.80824       	DICPCG	1.018170e-02	4.736730e-09	2	true
8.8172        	DICPCG	4.646370e-04	1.870920e-08	1	true
8.82796       	DICPCG	5.568570e-04	2.690330e-08	1	true
8.84086       	DICPCG	6.674050e-04	3.869560e-08	1	true
8.85635       	DICPCG	7.997220e-04	5.564480e-08	1	true
8.87495       	DICPCG	9.580180e-04	7.999760e-08	1	true
8.89726       	DICPCG	1.145960e-03	1.147090e-07	1	true
8.92401       	DICPCG	1.370320e-03	1.644390e-07	1	true
8.95609       	DICPCG	1.638030e-03	2.356800e-07	1	true
8.99457       	DICPCG	1.955830e-03	3.372090e-07	1	true
9.04043       	DICPCG	2.319740e-03	4.763920e-07	1	true
9.09453       	DICPCG	2.720590e-03	6.585630e-07	1	true
9.15815       	DICPCG	3.177720e-03	9.037570e-07	1	true
9.23288       	DICPCG	3.702870e-03	2.483420e-10	2	true
9.32047       	DICPCG	4.300850e-03	3.967910e-10	2	true
9.42229       	DICPCG	4.946380e-03	6.172980e-10	2	true
9.53941       	DICPCG	5.621940e-03	9.296670e-10	2	true
9.67623       	DICPCG	6.476770e-03	1.464010e-09	2	true
9.79689       	DICPCG	5.638230e-03	9.888990e-10	2	true
9.82635       	DICPCG	1.369720e-03	1.810510e-07	1	true
9.85956       	DICPCG	1.538440e-03	2.290760e-07	1	true
9.89858       	DICPCG	1.801150e-03	3.150080e-07	1	true
9.9442        	DICPCG	2.096500e-03	4.284110e-07	1	true
9.99759       	DICPCG	2.440650e-03	5.831720e-07	1	true
10.0598       	DICPCG	2.828640e-03	7.873700e-07	1	true
10.1324       	DICPCG	3.272580e-03	2.068210e-10	2	true
10.2168       	DICPCG	3.781170e-03	3.231290e-10	2	true
10.3154       	DICPCG	4.370380e-03	5.089590e-10	2	true
10.4301       	DICPCG	5.032870e-03	7.953850e-10	2	true
10.5638       	DICPCG	5.791710e-03	1.244710e-09	2	true
10.6938       	DICPCG	5.565800e-03	1.131300e-09	2	true
10.7169       	DICPCG	9.834450e-04	1.018850e-07	1	true
10.7436       	DICPCG	1.135030e-03	1.359990e-07	1	true
10.7754       	DICPCG	1.348970e-03	1.925620e-07	1	true
10.8135       	DICPCG	1.606710e-03	2.739520e-07	1	true
10.8591       	DICPCG	1.919110e-03	3.921630e-07	1	true
10.9139       	DICPCG	2.294630e-03	5.629120e-07	1	true
10.9797       	DICPCG	2.739660e-03	8.062890e-07	1	true
11.0585       	DICPCG	3.255700e-03	2.423660e-10	2	true
11.1527       	DICPCG	3.861770e-03	4.093370e-10	2	true
11.2653       	DICPCG	4.570570e-03	6.930700e-10	2	true
11.3999       	DICPCG	5.404130e-03	1.174760e-09	2	true
11.5618       	DICPCG	6.409560e-03	2.019510e-09	2	true
11.7485       	DICPCG	7.273310e-03	3.052090e-09	2	true
11.7679       	DICPCG	7.531580e-04	6.565700e-08	1	true
11.7908       	DICPCG	8.884510e-04	9.151430e-08	1	true
11.8183       	DICPCG	1.061430e-03	1.308690e-07	1	true
11.8512       	DICPCG	1.270190e-03	1.878300e-07	1	true
11.8908       	DICPCG	1.521490e-03	2.702270e-07	1	true
11.9383       	DICPCG	1.817560e-03	3.868530e-07	1	true
11.9954       	DICPCG	2.172520e-03	5.547970e-07	1	true
12.0638       	DICPCG	2.592620e-03	7.936610e-07	1	true
12.1457       	DICPCG	3.080970e-03	2.481010e-10	2	true
12.2438       	DICPCG	3.663720e-03	4.210900e-10	2	true
12.3619       	DICPCG	4.369120e-03	7.272330e-10	2	true
12.5039       	DICPCG	5.194770e-03	1.252610e-09	2	true
12.6751       	DICPCG	6.179810e-03	2.171280e-09	2	true
12.8035       	DICPCG	4.586040e-03	9.015100e-10	2	true
12.8307       	DICPCG	9.694940e-04	1.185480e-07	1	true
12.8623       	DICPCG	1.122860e-03	1.593460e-07	1	true
12.8991       	DICPCG	1.302920e-03	2.150530e-07	1	true
12.9422       	DICPCG	1.520500e-03	2.936650e-07	1	true
12.9928       	DICPCG	1.781990e-03	4.046190e-07	1	true
13.0529       	DICPCG	2.102160e-03	5.651300e-07	1	true
13.1244       	DICPCG	2.491630e-03	7.973360e-07	1	true
13.2098       	DICPCG	2.956850e-03	2.593950e-10	2	true
13.3115       	DICPCG	3.491440e-03	4.308240e-10	2	true
13.432        	DICPCG	4.103140e-03	7.082760e-10	2	true
13.5748       	DICPCG	4.813100e-03	1.168980e-09	2	true
13.7453       	DICPCG	5.677500e-03	1.970950e-09	2	true
13.9361       	DICPCG	6.264840e-03	2.726390e-09	2	true
13.9807       	DICPCG	1.459150e-03	2.920300e-07	1	true
14.0308       	DICPCG	1.632310e-03	3.665880e-07	1	true
14.0907       	DICPCG	1.945220e-03	5.222980e-07	1	true
14.1625       	DICPCG	2.317610e-03	7.442660e-07	1	true
14.2485       	DICPCG	2.761160e-03	2.457520e-10	2	true
14.3519       	DICPCG	3.295550e-03	4.209930e-10	2	true
14.4757       	DICPCG	3.914280e-03	7.119410e-10	2	true
14.6199       	DICPCG	4.514090e-03	1.111870e-09	2	true
14.7197       	DICPCG	3.103000e-03	3.702330e-10	2	true
14.765        	DICPCG	1.403120e-03	2.849950e-07	1	true
14.8172       	DICPCG	1.612220e-03	3.773510e-07	1	true
14.8796       	DICPCG	1.920820e-03	5.373350e-07	1	true
14.9546       	DICPCG	2.293770e-03	7.691370e-07	1	true
15.0443       	DICPCG	2.728490e-03	2.639910e-10	2	true
15.1514       	DICPCG	3.234280e-03	4.430450e-10	2	true
15.2793       	DICPCG	3.832820e-03	7.440240e-10	2	true
15.4336       	DICPCG	4.577920e-03	1.289100e-09	2	true
15.5071       	DICPCG	2.172210e-03	7.151030e-07	1	true
15.5406       	DICPCG	9.843180e-04	1.477150e-07	1	true
15.5805       	DICPCG	1.172300e-03	2.099450e-07	1	true
15.6276       	DICPCG	1.379100e-03	2.912540e-07	1	true
15.684        	DICPCG	1.647290e-03	4.167210e-07	1	true
15.7515       	DICPCG	1.961090e-03	5.926140e-07	1	true
15.832        	DICPCG	2.324280e-03	8.358070e-07	1	true
15.9265       	DICPCG	2.715260e-03	2.915750e-10	2	true
16.0371       	DICPCG	3.156700e-03	4.621410e-10	2	true
16.1652       	DICPCG	3.623650e-03	7.064110e-10	2	true
16.3149       	DICPCG	4.198800e-03	1.112770e-09	2	true
16.4852       	DICPCG	4.725470e-03	1.620250e-09	2	true
16.5262       	DICPCG	1.133140e-03	2.083230e-07	1	true
16.5743       	DICPCG	1.328790e-03	2.871360e-07	1	true
16.632        	DICPCG	1.587240e-03	4.107490e-07	1	true
16.7012       	DICPCG	1.894410e-03	5.868620e-07	1	true
16.7842       	DICPCG	2.262520e-03	8.400470e-07	1	true
16.8831       	DICPCG	2.683610e-03	3.164340e-10	2	true
17.0025       	DICPCG	3.214530e-03	5.474180e-10	2	true
17.1453       	DICPCG	3.815480e-03	9.229050e-10	2	true
17.3161       	DICPCG	4.519080e-03	1.552420e-09	2	true
17.5131       	DICPCG	5.157540e-03	2.360060e-09	2	true
17.6265       	DICPCG	2.950330e-03	4.547720e-10	2	true
17.6682       	DICPCG	1.080690e-03	2.020450e-07	1	true
17.7161       	DICPCG	1.239540e-03	2.664400e-07	1	true
17.7721       	DICPCG	1.444640e-03	3.628070e-07	1	true
17.8391       	DICPCG	1.719040e-03	5.151780e-07	1	true
17.9195       	DICPCG	2.057550e-03	7.404790e-07	1	true
18.0165       	DICPCG	2.467300e-03	2.794540e-10	2	true
18.1329       	DICPCG	2.942380e-03	4.770090e-10	2	true
18.2731       	DICPCG	3.516680e-03	8.206350e-10	2	true
18.4371       	DICPCG	4.081230e-03	1.295580e-09	2	true
18.5126       	DICPCG	1.869780e-03	6.312730e-07	1	true
18.5378       	DICPCG	6.249720e-04	7.090880e-08	1	true
18.5681       	DICPCG	7.498850e-04	1.022190e-07	1	true
18.6045       	DICPCG	8.964040e-04	1.462900e-07	1	true
18.648        	DICPCG	1.070770e-03	2.091140e-07	1	true
18.7001       	DICPCG	1.277940e-03	2.984840e-07	1	true
18.7624       	DICPCG	1.526070e-03	4.266990e-07	1	true
18.8376       	DICPCG	1.831560e-03	6.164150e-07	1	true
18.9282       	DICPCG	2.198450e-03	8.911780e-07	1	true
19.0366       	DICPCG	2.615830e-03	3.703240e-10	2	true
19.1663       	DICPCG	3.107140e-03	6.249830e-10	2	true
19.3198       	DICPCG	3.651140e-03	1.022860e-09	2	true
19.503        	DICPCG	4.318000e-03	1.708690e-09	2	true
19.7229       	DICPCG	5.124740e-03	2.907400e-09	2	true
19.8376       	DICPCG	2.659420e-03	4.217290e-10	2	true
19.8605       	DICPCG	5.289940e-04	5.438580e-08	1	true
19.8871       	DICPCG	6.156970e-04	7.376550e-08	1	true
19.9183       	DICPCG	7.194990e-04	1.008570e-07	1	true
19.9554       	DICPCG	8.542850e-04	1.423840e-07	1	true
19.9996       	DICPCG	1.016730e-03	2.020100e-07	1	true
20.0522       	DICPCG	1.206050e-03	2.848080e-07	1	true
20.1149       	DICPCG	1.430480e-03	4.016200e-07	1	true
20.1889       	DICPCG	1.684370e-03	5.584360e-07	1	true
20.2748       	DICPCG	1.946960e-03	7.486460e-07	1	true
20.3733       	DICPCG	2.220490e-03	9.775650e-07	1	true
20.4861       	DICPCG	2.532020e-03	3.889990e-10	2	true
20.6151       	DICPCG	2.876440e-03	5.748750e-10	2	true
20.7612       	DICPCG	3.237900e-03	8.274620e-10	2	true
20.9126       	DICPCG	3.328840e-03	9.109090e-10	2	true
20.9221       	DICPCG	2.076770e-04	8.832350e-09	1	true
20.9334       	DICPCG	2.489950e-04	1.270570e-08	1	true
20.947        	DICPCG	2.986700e-04	1.829640e-08	1	true
20.9633       	DICPCG	3.584950e-04	2.638500e-08	1	true
20.9829       	DICPCG	4.293200e-04	3.787950e-08	1	true
21.0064       	DICPCG	5.139680e-04	5.435150e-08	1	true
21.0345       	DICPCG	6.143450e-04	7.775270e-08	1	true
21.0681       	DICPCG	7.327780e-04	1.107760e-07	1	true
21.1083       	DICPCG	8.730660e-04	1.574940e-07	1	true
21.1563       	DICPCG	1.043080e-03	2.251810e-07	1	true
21.2137       	DICPCG	1.242110e-03	3.199120e-07	1	true
21.2825       	DICPCG	1.485840e-03	4.587500e-07	1	true
21.3651       	DICPCG	1.776440e-03	6.573570e-07	1	true
21.4634       	DICPCG	2.103360e-03	9.243310e-07	1	true
21.5813       	DICPCG	2.511040e-03	4.198500e-10	2	true
21.7237       	DICPCG	3.015430e-03	7.312120e-10	2	true
21.8875       	DICPCG	3.442960e-03	1.098110e-09	2	true
21.9169       	DICPCG	6.171310e-04	8.148870e-08	1	true
21.9504       	DICPCG	7.033350e-04	1.059600e-07	1	true
21.99         	DICPCG	8.298600e-04	1.476930e-07	1	true
22.037        	DICPCG	9.835630e-04	2.077640e-07	1	true
22.0929       	DICPCG	1.166450e-03	2.927130e-07	1	true
22.159        	DICPCG	1.374760e-03	4.074240e-07	1	true
22.2379       	DICPCG	1.636640e-03	5.788150e-07	1	true
22.3332       	DICPCG	1.967340e-03	8.387040e-07	1	true
22.4443       	DICPCG	2.284550e-03	3.409380e-10	2	true
22.5788       	DICPCG	2.749930e-03	5.976680e-10	2	true
22.7301       	DICPCG	3.072560e-03	8.422200e-10	2	true
22.7538       	DICPCG	4.800330e-04	5.109020e-08	1	true
22.7822       	DICPCG	5.763830e-04	7.373670e-08	1	true
22.8163       	DICPCG	6.904370e-04	1.059440e-07	1	true
22.8575       	DICPCG	8.320390e-04	1.540900e-07	1	true
22.9073       	DICPCG	1.003800e-03	2.246780e-07	1	true
22.9671       	DICPCG	1.201270e-03	3.224370e-07	1	true
23.0397       	DICPCG	1.453990e-03	4.734860e-07	1	true
23.125        	DICPCG	1.700620e-03	6.495680e-07	1	true
23.2291       	DICPCG	2.069370e-03	9.648360e-07	1	true
23.3556       	DICPCG	2.499640e-03	4.831400e-10	2	true
23.5051       	DICPCG	2.936110e-03	7.885340e-10	2	true
23.692        	DICPCG	3.641590e-03	1.515230e-09	2	true
23.7316       	DICPCG	7.724840e-04	1.377670e-07	1	true
23.7769       	DICPCG	8.811920e-04	1.795400e-07	1	true
23.8301       	DICPCG	1.032040e-03	2.467200e-07	1	true
23.8951       	DICPCG	1.258050e-03	3.673490e-07	1	true
23.974        	DICPCG	1.522720e-03	5.394510e-07	1	true
24.0673       	DICPCG	1.793040e-03	7.500590e-07	1	true
24.1709       	DICPCG	1.984430e-03	9.215850e-07	1	true
24.2463       	DICPCG	1.438780e-03	4.869820e-07	1	true
24.2805       	DICPCG	6.532500e-04	1.007880e-07	1	true
24.3205       	DICPCG	7.608950e-04	1.368960e-07	1	true
24.3691       	DICPCG	9.220830e-04	2.013110e-07	1	true
24.4264       	DICPCG	1.087240e-03	2.803380e-07	1	true
24.4981       	DICPCG	1.355150e-03	4.363150e-07	1	true
24.5818       	DICPCG	1.575900e-03	5.914570e-07	1	true
24.6863       	DICPCG	1.961820e-03	9.190410e-07	1	true
24.8432       	DICPCG	2.923750e-03	8.660980e-10	2	true
25            	DICPCG	2.907040e-03	8.617750e-10	2	true
25.1799       	DICPCG	3.310440e-03	1.284130e-09	2	true
25.2367       	DICPCG	1.044150e-03	2.665900e-07	1	true
25.2762       	DICPCG	7.257440e-04	1.291910e-07	1	true
25.3217       	DICPCG	8.336040e-04	1.707530e-07	1	true
25.3763       	DICPCG	9.972340e-04	2.447720e-07	1	true
25.4418       	DICPCG	1.192900e-03	3.509190e-07	1	true
25.5203       	DICPCG	1.424620e-03	5.016230e-07	1	true
25.6144       	DICPCG	1.703360e-03	7.189790e-07	1	true
25.7263       	DICPCG	2.014850e-03	3.075870e-10	2	true
25.7707       	DICPCG	7.985190e-04	1.594870e-07	1	true
25.8239       	DICPCG	9.562240e-04	2.290040e-07	1	true
25.8856       	DICPCG	1.104740e-03	3.061880e-07	1	true
25.9596       	DICPCG	1.321510e-03	4.389060e-07	1	true
26.0464       	DICPCG	1.545240e-03	6.016160e-07	1	true
26.1164       	DICPCG	1.244080e-03	3.913960e-07	1	true
26.1582       	DICPCG	7.405960e-04	1.392020e-07	1	true
26.2082       	DICPCG	8.866910e-04	1.997940e-07	1	true
26.2683       	DICPCG	1.061160e-03	2.865960e-07	1	true
26.3405       	DICPCG	1.270610e-03	4.116190e-07	1	true
26.4271       	DICPCG	1.521640e-03	5.915980e-07	1	true
26.531        	DICPCG	1.816120e-03	8.449280e-07	1	true
26.6558       	DICPCG	2.172590e-03	4.113920e-10	2	true
26.8017       	DICPCG	2.524090e-03	6.492780e-10	2	true
26.8399       	DICPCG	6.596010e-04	1.132380e-07	1	true
26.8856       	DICPCG	7.896310e-04	1.625310e-07	1	true
26.9405       	DICPCG	9.450590e-04	2.331990e-07	1	true
27.0064       	DICPCG	1.131250e-03	3.347140e-07	1	true
27.0854       	DICPCG	1.352830e-03	4.796200e-07	1	true
27.1801       	DICPCG	1.615720e-03	6.856610e-07	1	true
27.2937       	DICPCG	1.929430e-03	9.804110e-07	1	true
27.4296       	DICPCG	2.299300e-03	5.158850e-10	2	true
27.5442       	DICPCG	1.928870e-03	9.889030e-07	1	true
27.5539       	DICPCG	1.634390e-04	7.143090e-09	1	true
27.5654       	DICPCG	1.933280e-04	1.000340e-08	1	true
27.5791       	DICPCG	2.311770e-04	1.432280e-08	1	true
27.5956       	DICPCG	2.770600e-04	2.060560e-08	1	true
27.6155       	DICPCG	3.318800e-04	2.962110e-08	1	true
27.6392       	DICPCG	3.974330e-04	4.256240e-08	1	true
27.6677       	DICPCG	4.761780e-04	6.122290e-08	1	true
27.7019       	DICPCG	5.699470e-04	8.788330e-08	1	true
27.743        	DICPCG	6.830990e-04	1.264790e-07	1	true
27.7922       	DICPCG	8.175530e-04	1.814870e-07	1	true
27.8513       	DICPCG	9.786220e-04	2.604690e-07	1	true
27.9221       	DICPCG	1.169790e-03	3.727730e-07	1	true
28.007        	DICPCG	1.400050e-03	5.348730e-07	1	true
28.1088       	DICPCG	1.673460e-03	7.657240e-07	1	true
28.2311       	DICPCG	2.002550e-03	3.666020e-10	2	true
28.3762       	DICPCG	2.365160e-03	6.067930e-10	2	true
28.4773       	DICPCG	1.642370e-03	7.456180e-07	1	true
28.5156       	DICPCG	6.231670e-04	1.078830e-07	1	true
28.5589       	DICPCG	7.010170e-04	1.366910e-07	1	true
28.6108       	DICPCG	8.404530e-04	1.966840e-07	1	true
28.6731       	DICPCG	1.007530e-03	2.830130e-07	1	true
28.748        	DICPCG	1.206270e-03	4.062230e-07	1	true
28.8376       	DICPCG	1.441530e-03	5.810850e-07	1	true
28.9451       	DICPCG	1.721240e-03	8.300430e-07	1	true
29.0742       	DICPCG	2.061460e-03	4.198800e-10	2	true
29.2292       	DICPCG	2.460890e-03	7.171890e-10	2	true
29.2969       	DICPCG	1.072660e-03	3.262600e-07	1	true
29.3173       	DICPCG	3.229930e-04	2.967880e-08	1	true
29.3417       	DICPCG	3.870720e-04	4.266260e-08	1	true
29.3711       	DICPCG	4.639910e-04	6.137470e-08	1	true
29.4063       	DICPCG	5.558260e-04	8.819360e-08	1	true
29.4485       	DICPCG	6.652460e-04	1.265240e-07	1	true
29.4991       	DICPCG	7.965640e-04	1.816960e-07	1	true
29.5597       	DICPCG	9.526000e-04	2.602840e-07	1	true
29.6325       	DICPCG	1.139940e-03	3.733590e-07	1	true
29.7199       	DICPCG	1.366480e-03	5.374150e-07	1	true
29.825        	DICPCG	1.637900e-03	7.734460e-07	1	true
29.9511       	DICPCG	1.958830e-03	3.810910e-10	2	true
30.1018       	DICPCG	2.332190e-03	6.447810e-10	2	true
30.2827       	DICPCG	2.784550e-03	1.100830e-09	2	true
30.4256       	DICPCG	2.188010e-03	5.439280e-10	2	true
30.4385       	DICPCG	1.982240e-04	1.158200e-08	1	true
30.4534       	DICPCG	2.271690e-04	1.522710e-08	1	true
30.4704       	DICPCG	2.604160e-04	2.002470e-08	1	true
30.4902       	DICPCG	3.012770e-04	2.681880e-08	1	true
30.5132       	DICPCG	3.492710e-04	3.606820e-08	1	true
30.5398       	DICPCG	4.055460e-04	4.866200e-08	1	true
30.5709       	DICPCG	4.707440e-04	6.561170e-08	1	true
30.6069       	DICPCG	5.458080e-04	8.826440e-08	1	true
30.6487       	DICPCG	6.317500e-04	1.183270e-07	1	true
30.6971       	DICPCG	7.298930e-04	1.580570e-07	1	true
30.7531       	DICPCG	8.423680e-04	2.106840e-07	1	true
30.8176       	DICPCG	9.701840e-04	2.797060e-07	1	true
30.8923       	DICPCG	1.118400e-03	3.720500e-07	1	true
30.9787       	DICPCG	1.291980e-03	4.970910e-07	1	true
31.0789       	DICPCG	1.491470e-03	6.634620e-07	1	true
31.1949       	DICPCG	1.723600e-03	8.877470e-07	1	true
31.3302       	DICPCG	2.001320e-03	4.368140e-10	2	true
31.4845       	DICPCG	2.272600e-03	6.436960e-10	2	true
31.5675       	DICPCG	1.222110e-03	4.518290e-07	1	true
31.5935       	DICPCG	3.826060e-04	4.449610e-08	1	true
31.6239       	DICPCG	4.458340e-04	6.050690e-08	1	true
31.66         	DICPCG	5.313510e-04	8.605720e-08	1	true
31.7034       	DICPCG	6.362740e-04	1.235420e-07	1	true
31.7554       	DICPCG	7.620760e-04	1.773950e-07	1	true
31.8176       	DICPCG	9.119800e-04	2.542590e-07	1	true
31.8916       	DICPCG	1.081260e-03	3.576970e-07	1	true
31.9786       	DICPCG	1.271880e-03	4.953880e-07	1	true
32.081        	DICPCG	1.493330e-03	6.839040e-07	1	true
32.2005       	DICPCG	1.738390e-03	9.285250e-07	1	true
32.3406       	DICPCG	2.033660e-03	4.859920e-10	2	true
32.5012       	DICPCG	2.321090e-03	7.264680e-10	2	true
32.6694       	DICPCG	2.421320e-03	8.281210e-10	2	true
32.6937       	DICPCG	3.489990e-04	3.806620e-08	1	true
32.7218       	DICPCG	4.050930e-04	5.138910e-08	1	true
32.755        	DICPCG	4.757670e-04	7.100510e-08	1	true
32.7941       	DICPCG	5.599480e-04	9.852130e-08	1	true
32.8399       	DICPCG	6.540250e-04	1.346090e-07	1	true
32.8932       	DICPCG	7.601750e-04	1.821020e-07	1	true
32.9552       	DICPCG	8.823430e-04	2.456970e-07	1	true
33.0274       	DICPCG	1.025960e-03	3.326650e-07	1	true
33.1114       	DICPCG	1.190950e-03	4.488880e-07	1	true
33.2096       	DICPCG	1.388390e-03	6.108960e-07	1	true
33.3246       	DICPCG	1.621730e-03	8.346410e-07	1	true
33.4591       	DICPCG	1.890250e-03	4.169130e-10	2	true
33.6181       	DICPCG	2.226840e-03	6.841900e-10	2	true
33.7962       	DICPCG	2.479520e-03	9.520840e-10	2	true
33.8218       	DICPCG	3.570740e-04	4.114860e-08	1	true
33.8523       	DICPCG	4.233430e-04	5.793600e-08	1	true
33.8888       	DICPCG	5.065970e-04	8.311180e-08	1	true
33.9326       	DICPCG	6.060440e-04	1.191510e-07	1	true
33.9844       	DICPCG	7.163780e-04	1.667350e-07	1	true
34.0453       	DICPCG	8.404480e-04	2.297650e-07	1	true
34.1166       	DICPCG	9.815090e-04	3.136460e-07	1	true
34.1997       	DICPCG	1.143960e-03	4.263630e-07	1	true
34.2966       	DICPCG	1.330580e-03	5.773560e-07	1	true
34.4088       	DICPCG	1.535810e-03	7.702290e-07	1	true
34.5387       	DICPCG	1.773690e-03	3.643370e-10	2	true
34.6888       	DICPCG	2.041960e-03	5.584860e-10	2	true
34.8609       	DICPCG	2.330210e-03	8.363750e-10	2	true
34.9561       	DICPCG	1.286510e-03	5.493350e-07	1	true
34.9783       	DICPCG	3.000950e-04	3.005400e-08	1	true
35.005        	DICPCG	3.597390e-04	4.324630e-08	1	true
35.037        	DICPCG	4.313500e-04	6.226040e-08	1	true
35.0755       	DICPCG	5.171040e-04	8.959140e-08	1	true
35.1217       	DICPCG	6.202740e-04	1.290830e-07	1	true
35.1772       	DICPCG	7.441380e-04	1.860400e-07	1	true
35.2437       	DICPCG	8.895220e-04	2.661960e-07	1	true
35.3235       	DICPCG	1.065480e-03	3.824340e-07	1	true
35.4194       	DICPCG	1.278680e-03	5.515850e-07	1	true
35.5342       	DICPCG	1.526690e-03	7.876170e-07	1	true
35.672        	DICPCG	1.826580e-03	4.256760e-10	2	true
35.8367       	DICPCG	2.175880e-03	7.224850e-10	2	true
36.0182       	DICPCG	2.388810e-03	9.619980e-10	2	true
36.0426       	DICPCG	3.204980e-04	3.524840e-08	1	true
36.0705       	DICPCG	3.674160e-04	4.635780e-08	1	true
36.1031       	DICPCG	4.287920e-04	6.317930e-08	1	true
36.1415       	DICPCG	5.039460e-04	8.732600e-08	1	true
36.1871       	DICPCG	5.976370e-04	1.228890e-07	1	true
36.2414       	DICPCG	7.119380e-04	1.744920e-07	1	true
36.3067       	DICPCG	8.523590e-04	2.502360e-07	1	true
36.3845       	DICPCG	1.015280e-03	3.552150e-07	1	true
36.4765       	DICPCG	1.198100e-03	4.949480e-07	1	true
36.5846       	DICPCG	1.405490e-03	6.818180e-07	1	true
36.7112       	DICPCG	1.639210e-03	9.290490e-07	1	true
36.8572       	DICPCG	1.884380e-03	4.919660e-10	2	true
37.0257       	DICPCG	2.163390e-03	7.507950e-10	2	true
37.0622       	DICPCG	4.681300e-04	7.682610e-08	1	true
37.1059       	DICPCG	5.603460e-04	1.101600e-07	1	true
37.1583       	DICPCG	6.706900e-04	1.579930e-07	1	true
37.2212       	DICPCG	8.039640e-04	2.273170e-07	1	true
37.2969       	DICPCG	9.638240e-04	3.271930e-07	1	true
37.3876       	DICPCG	1.154210e-03	4.700510e-07	1	true
37.4963       	DICPCG	1.379880e-03	6.731940e-07	1	true
37.6266       	DICPCG	1.648470e-03	9.629780e-07	1	true
37.7832       	DICPCG	1.975750e-03	5.974250e-10	2	true
37.9236       	DICPCG	1.764790e-03	4.306370e-10	2	true
37.9476       	DICPCG	3.012200e-04	3.250880e-08	1	true
37.9763       	DICPCG	3.609190e-04	4.667860e-08	1	true
38.0109       	DICPCG	4.326090e-04	6.711040e-08	1	true
38.0524       	DICPCG	5.182930e-04	9.644680e-08	1	true
38.1022       	DICPCG	6.205150e-04	1.384810e-07	1	true
38.162        	DICPCG	7.434430e-04	1.992080e-07	1	true
38.2337       	DICPCG	8.898750e-04	2.861070e-07	1	true
38.3196       	DICPCG	1.062370e-03	4.088210e-07	1	true
38.423        	DICPCG	1.274820e-03	5.902120e-07	1	true
38.5474       	DICPCG	1.530300e-03	8.526430e-07	1	true
38.6962       	DICPCG	1.821180e-03	4.920580e-10	2	true
38.8701       	DICPCG	2.120090e-03	7.792300e-10	2	true
38.9669       	DICPCG	1.177200e-03	5.100940e-07	1	true
38.986        	DICPCG	2.323020e-04	1.997410e-08	1	true
39.0087       	DICPCG	2.751280e-04	2.809600e-08	1	true
39.036        	DICPCG	3.296300e-04	4.043510e-08	1	true
39.0687       	DICPCG	3.947320e-04	5.811890e-08	1	true
39.1077       	DICPCG	4.700510e-04	8.257020e-08	1	true
39.1541       	DICPCG	5.572770e-04	1.162260e-07	1	true
39.2091       	DICPCG	6.611370e-04	1.637630e-07	1	true
39.2749       	DICPCG	7.892040e-04	2.335450e-07	1	true
39.3538       	DICPCG	9.446310e-04	3.348480e-07	1	true
39.4489       	DICPCG	1.136680e-03	4.853200e-07	1	true
39.5623       	DICPCG	1.353690e-03	6.891820e-07	1	true
39.6979       	DICPCG	1.612740e-03	9.796840e-07	1	true
39.8564       	DICPCG	1.878190e-03	5.823520e-10	2	true
39.9081       	DICPCG	6.132580e-04	1.427890e-07	1	true
39.9407       	DICPCG	3.851900e-04	5.641720e-08	1	true
39.9788       	DICPCG	4.500050e-04	7.709140e-08	1	true
40.0245       	DICPCG	5.394310e-04	1.109390e-07	1	true
40.0793       	DICPCG	6.449580e-04	1.588540e-07	1	true
40.145        	DICPCG	7.716440e-04	2.277710e-07	1	true
40.2239       	DICPCG	9.241060e-04	3.272140e-07	1	true
40.3188       	DICPCG	1.110060e-03	4.728830e-07	1	true
40.4327       	DICPCG	1.328700e-03	6.785260e-07	1	true
40.5694       	DICPCG	1.589930e-03	9.728420e-07	1	true
40.732        	DICPCG	1.884340e-03	6.096510e-10	2	true
40.7818       	DICPCG	5.778650e-04	1.294600e-07	1	true
40.8243       	DICPCG	4.919050e-04	9.396700e-08	1	true
40.8752       	DICPCG	5.890430e-04	1.349560e-07	1	true
40.9365       	DICPCG	7.061860e-04	1.942610e-07	1	true
41.0102       	DICPCG	8.477850e-04	2.804000e-07	1	true
41.0983       	DICPCG	1.011610e-03	3.997950e-07	1	true
41.2043       	DICPCG	1.213010e-03	5.755790e-07	1	true
41.3318       	DICPCG	1.454970e-03	8.290710e-07	1	true
41.4787       	DICPCG	1.669890e-03	4.411200e-10	2	true
41.5355       	DICPCG	6.450990e-04	1.640980e-07	1	true
41.5803       	DICPCG	5.079540e-04	1.020050e-07	1	true
41.6319       	DICPCG	5.848560e-04	1.354170e-07	1	true
41.6939       	DICPCG	7.005160e-04	1.945330e-07	1	true
41.7681       	DICPCG	8.364290e-04	2.778150e-07	1	true
41.8566       	DICPCG	9.962710e-04	3.948850e-07	1	true
41.9623       	DICPCG	1.187690e-03	5.624370e-07	1	true
42.0899       	DICPCG	1.429150e-03	8.158540e-07	1	true
42.2392       	DICPCG	1.663950e-03	4.524160e-10	2	true
42.2716       	DICPCG	3.620920e-04	5.258110e-08	1	true
42.3083       	DICPCG	4.076210e-04	6.677360e-08	1	true
42.3522       	DICPCG	4.882920e-04	9.594960e-08	1	true
42.405        	DICPCG	5.849720e-04	1.378870e-07	1	true
42.4683       	DICPCG	7.008850e-04	1.981620e-07	1	true
42.5443       	DICPCG	8.411910e-04	2.857390e-07	1	true
42.6353       	DICPCG	1.003860e-03	4.073510e-07	1	true
42.7452       	DICPCG	1.211770e-03	5.943150e-07	1	true
42.8771       	DICPCG	1.451440e-03	8.536270e-07	1	true
43.0354       	DICPCG	1.737920e-03	5.314150e-10	2	true
43.1308       	DICPCG	1.045580e-03	4.460110e-07	1	true
43.1632       	DICPCG	3.546620e-04	5.138780e-08	1	true