x,T
-0.0099,298.053
-0.00938421,297.555
-0.00886842,297.056
-0.00835263,296.557
-0.00783684,296.058
-0.00732105,295.559
-0.00680526,295.061
-0.00628947,294.562
-0.00577368,294.063
-0.00525789,293.575
-0.00474211,293.141
-0.00422632,292.707
-0.00371053,292.273
-0.00319474,291.839
-0.00267895,291.406
-0.00216316,290.972
-0.00164737,290.538
-0.00113158,290.104
-0.000615789,289.67
-0.0001,289.236
