# Solver information
# Time        	h_solver      	h_initial     	h_final       	h_iters       	h_converged   
0.120192      	DICPCG	1.000000e+00	9.931050e-09	3	true
0.206282      	DICPCG	1.045030e-01	9.286790e-08	2	true
0.210338      	DICPCG	3.587850e-03	1.556780e-07	1	true
0.215205      	DICPCG	6.711480e-03	3.500940e-07	1	true
0.221046      	DICPCG	8.566190e-03	5.424720e-07	1	true
0.228056      	DICPCG	1.010910e-02	7.686240e-07	1	true
0.236467      	DICPCG	1.160970e-02	8.388400e-11	2	true
0.246563      	DICPCG	1.306450e-02	1.355950e-10	2	true
0.258679      	DICPCG	1.449340e-02	2.162250e-10	2	true
0.273215      	DICPCG	1.591740e-02	3.414070e-10	2	true
0.290653      	DICPCG	1.733590e-02	5.354300e-10	2	true
0.311576      	DICPCG	1.872910e-02	8.346750e-10	2	true
0.336691      	DICPCG	2.006410e-02	1.295030e-09	2	true
0.366842      	DICPCG	2.128760e-02	1.995310e-09	2	true
0.403014      	DICPCG	2.234040e-02	3.043270e-09	2	true
0.446395      	DICPCG	2.321650e-02	4.604250e-09	2	true
0.498415      	DICPCG	2.401410e-02	6.950230e-09	2	true
0.56076       	DICPCG	2.502970e-02	1.056670e-08	2	true
0.635498      	DICPCG	2.680780e-02	1.649000e-08	2	true
0.725073      	DICPCG	2.991080e-02	2.799190e-08	2	true
0.832484      	DICPCG	3.461400e-02	4.939790e-08	2	true
0.961035      	DICPCG	4.106010e-02	8.420390e-08	2	true
1.11513       	DICPCG	4.673060e-02	1.350050e-07	2	true
1.30028       	DICPCG	5.152350e-02	2.143740e-07	2	true
1.52178       	DICPCG	4.689650e-02	2.611340e-07	2	true
1.54526       	DICPCG	4.463080e-03	2.117420e-10	2	true
1.57305       	DICPCG	5.506460e-03	3.632540e-10	2	true
1.60637       	DICPCG	6.785750e-03	6.203330e-10	2	true
1.64636       	DICPCG	8.341020e-03	1.085900e-09	2	true
1.69431       	DICPCG	1.007740e-02	1.897760e-09	2	true
1.75186       	DICPCG	1.193370e-02	3.280420e-09	2	true
1.82084       	DICPCG	1.378410e-02	5.532780e-09	2	true
1.90363       	DICPCG	1.556110e-02	9.355250e-09	2	true
2.00275       	DICPCG	1.718620e-02	1.552060e-08	2	true
2.12191       	DICPCG	1.881030e-02	2.605850e-08	2	true
2.2649        	DICPCG	2.026670e-02	4.335000e-08	2	true
2.43584       	DICPCG	2.149780e-02	6.919760e-08	2	true
2.62869       	DICPCG	2.126140e-02	9.997500e-08	2	true
2.64726       	DICPCG	1.924610e-03	4.082860e-07	1	true
2.66955       	DICPCG	2.290300e-03	5.852400e-07	1	true
2.69629       	DICPCG	2.691070e-03	8.234500e-07	1	true
2.72838       	DICPCG	3.166360e-03	3.312500e-10	2	true
2.76691       	DICPCG	3.719530e-03	5.535120e-10	2	true
2.81313       	DICPCG	4.361660e-03	9.188730e-10	2	true
2.8686        	DICPCG	5.113480e-03	1.532040e-09	2	true
2.93506       	DICPCG	5.974570e-03	2.579750e-09	2	true
3.01472       	DICPCG	6.939820e-03	4.350340e-09	2	true
3.11031       	DICPCG	8.002170e-03	7.322400e-09	2	true
3.22373       	DICPCG	9.006890e-03	1.183750e-08	2	true
3.35732       	DICPCG	9.943750e-03	1.871470e-08	2	true
3.51415       	DICPCG	1.081290e-02	2.925160e-08	2	true
3.69471       	DICPCG	1.169300e-02	4.399750e-08	2	true
3.80123       	DICPCG	6.264920e-03	7.502030e-09	2	true
3.8424        	DICPCG	2.504360e-03	4.120240e-10	2	true
3.89126       	DICPCG	2.888880e-03	6.875140e-10	2	true
3.94989       	DICPCG	3.529870e-03	1.240290e-09	2	true
4.0203        	DICPCG	4.080400e-03	2.137740e-09	2	true
4.10388       	DICPCG	4.781700e-03	3.632540e-09	2	true
4.20434       	DICPCG	5.354700e-03	6.166670e-09	2	true
4.3225        	DICPCG	6.275980e-03	1.011810e-08	2	true
4.33819       	DICPCG	8.070300e-04	1.181420e-07	1	true
4.35702       	DICPCG	9.727730e-04	1.724290e-07	1	true
4.37963       	DICPCG	1.147780e-03	2.460740e-07	1	true
4.40677       	DICPCG	1.359070e-03	3.513170e-07	1	true
4.4393        	DICPCG	1.603020e-03	4.988060e-07	1	true
4.47831       	DICPCG	1.887930e-03	7.072080e-07	1	true
4.52517       	DICPCG	2.223260e-03	5.421620e-10	2	true
4.58142       	DICPCG	2.612950e-03	9.398160e-10	2	true
4.64903       	DICPCG	3.069190e-03	1.642770e-09	2	true
4.73011       	DICPCG	3.588270e-03	2.860280e-09	2	true
4.82756       	DICPCG	4.200850e-03	5.037660e-09	2	true
4.94416       	DICPCG	4.874560e-03	8.791850e-09	2	true
5.08441       	DICPCG	5.712580e-03	1.561580e-08	2	true
5.25319       	DICPCG	6.994300e-03	2.930040e-08	2	true
5.34295       	DICPCG	3.872990e-03	4.877670e-09	2	true
5.37224       	DICPCG	1.206300e-03	4.201800e-07	1	true
5.40585       	DICPCG	1.333550e-03	4.879000e-07	1	true
5.44617       	DICPCG	1.577650e-03	6.823830e-07	1	true
5.49457       	DICPCG	1.861170e-03	9.605300e-07	1	true
5.55262       	DICPCG	2.203810e-03	9.849260e-10	2	true
5.62232       	DICPCG	2.616920e-03	1.711660e-09	2	true
5.70585       	DICPCG	3.110210e-03	2.986290e-09	2	true
5.80582       	DICPCG	3.685900e-03	5.215230e-09	2	true
5.92578       	DICPCG	4.406540e-03	9.284910e-09	2	true
6.0692        	DICPCG	5.170730e-03	1.624450e-08	2	true
6.23974       	DICPCG	6.889010e-03	3.066780e-08	2	true
6.28463       	DICPCG	1.799390e-03	7.648420e-07	1	true
6.32403       	DICPCG	1.611550e-03	5.964580e-07	1	true
6.37107       	DICPCG	1.944550e-03	8.735960e-07	1	true
6.42684       	DICPCG	2.343300e-03	9.329450e-10	2	true
6.49365       	DICPCG	2.847260e-03	1.673180e-09	2	true
6.57377       	DICPCG	3.455580e-03	2.997560e-09	2	true
6.66974       	DICPCG	4.152020e-03	5.367690e-09	2	true
6.78502       	DICPCG	5.081290e-03	9.672560e-09	2	true
6.91896       	DICPCG	6.059520e-03	1.734740e-08	2	true
6.94457       	DICPCG	1.161590e-03	3.431750e-07	1	true
6.97527       	DICPCG	1.389320e-03	4.672820e-07	1	true
7.01147       	DICPCG	1.628960e-03	6.199040e-07	1	true
7.05471       	DICPCG	1.950390e-03	8.695880e-07	1	true
7.10657       	DICPCG	2.350700e-03	8.431220e-10	2	true
7.1687        	DICPCG	2.843380e-03	1.454960e-09	2	true
7.24331       	DICPCG	3.466000e-03	2.554060e-09	2	true
7.33299       	DICPCG	4.234220e-03	4.548650e-09	2	true
7.44072       	DICPCG	5.148260e-03	8.125000e-09	2	true
7.56983       	DICPCG	6.220170e-03	1.454050e-08	2	true
7.72408       	DICPCG	7.449500e-03	2.592900e-08	2	true
7.90984       	DICPCG	9.145460e-03	4.734740e-08	2	true
8.02454       	DICPCG	5.936100e-03	1.304220e-08	2	true
8.0509        	DICPCG	1.404860e-03	4.084020e-07	1	true
8.08252       	DICPCG	1.733000e-03	6.016270e-07	1	true
8.12045       	DICPCG	2.135680e-03	8.623510e-07	1	true
8.16595       	DICPCG	2.625020e-03	7.378970e-10	2	true
8.22061       	DICPCG	3.221720e-03	1.289110e-09	2	true
8.28615       	DICPCG	3.930180e-03	2.267230e-09	2	true
8.36462       	DICPCG	4.763610e-03	4.012100e-09	2	true
8.45861       	DICPCG	5.736480e-03	7.143830e-09	2	true
8.57113       	DICPCG	6.873980e-03	1.276800e-08	2	true
8.7058        	DICPCG	8.141130e-03	2.257870e-08	2	true
8.86399       	DICPCG	9.773510e-03	3.931790e-08	2	true
8.92267       	DICPCG	3.747810e-03	1.809990e-09	2	true
8.9545        	DICPCG	2.066180e-03	7.161960e-07	1	true
8.99271       	DICPCG	2.422600e-03	9.832860e-07	1	true
9.03857       	DICPCG	2.844400e-03	7.910030e-10	2	true
9.09361       	DICPCG	3.324320e-03	1.362170e-09	2	true
9.15961       	DICPCG	3.890930e-03	2.362950e-09	2	true
9.23882       	DICPCG	4.563500e-03	4.123180e-09	2	true
9.33376       	DICPCG	5.371550e-03	7.226560e-09	2	true
9.44729       	DICPCG	6.340910e-03	1.257520e-08	2	true
9.58253       	DICPCG	7.530050e-03	2.220740e-08	2	true
9.68073       	DICPCG	5.624440e-03	8.263700e-09	2	true
9.72136       	DICPCG	2.463140e-03	5.556920e-10	2	true
9.77018       	DICPCG	2.950950e-03	9.701230e-10	2	true
9.82875       	DICPCG	3.525430e-03	1.701100e-09	2	true
9.89899       	DICPCG	4.170760e-03	3.012280e-09	2	true
9.98335       	DICPCG	4.934700e-03	5.304490e-09	2	true
10.0848       	DICPCG	5.866500e-03	9.511590e-09	2	true
10.2023       	DICPCG	6.914560e-03	1.541360e-08	2	true
10.2409       	DICPCG	2.283730e-03	5.047290e-10	2	true
10.2869       	DICPCG	2.745170e-03	8.513860e-10	2	true
10.342        	DICPCG	3.328920e-03	1.468530e-09	2	true
10.408        	DICPCG	4.005420e-03	2.517660e-09	2	true
10.4873       	DICPCG	4.858490e-03	4.416580e-09	2	true
10.5822       	DICPCG	5.820450e-03	7.602770e-09	2	true
10.6957       	DICPCG	7.060800e-03	1.332720e-08	2	true
10.8294       	DICPCG	8.316060e-03	2.251970e-08	2	true
10.8502       	DICPCG	1.332610e-03	2.746370e-07	1	true
10.8749       	DICPCG	1.622310e-03	3.880380e-07	1	true
10.9045       	DICPCG	2.000050e-03	5.591080e-07	1	true
10.94         	DICPCG	2.446870e-03	7.993680e-07	1	true
10.9826       	DICPCG	2.988250e-03	6.980640e-10	2	true
11.0338       	DICPCG	3.639040e-03	1.227500e-09	2	true
11.095        	DICPCG	4.410910e-03	2.142840e-09	2	true
11.1686       	DICPCG	5.353230e-03	3.769870e-09	2	true
11.2567       	DICPCG	6.465460e-03	6.579560e-09	2	true
11.3608       	DICPCG	7.710710e-03	1.104980e-08	2	true
11.4848       	DICPCG	9.227570e-03	1.900760e-08	2	true
11.6317       	DICPCG	1.103290e-02	3.249220e-08	2	true
11.8009       	DICPCG	1.238280e-02	5.035370e-08	2	true
11.8693       	DICPCG	5.243350e-03	3.196570e-09	2	true
11.9181       	DICPCG	3.831420e-03	1.150910e-09	2	true
11.9768       	DICPCG	4.595750e-03	1.927170e-09	2	true
12.0472       	DICPCG	5.564810e-03	3.441590e-09	2	true
12.1318       	DICPCG	6.503180e-03	5.966920e-09	2	true
12.2308       	DICPCG	7.639550e-03	9.949990e-09	2	true
12.2905       	DICPCG	4.424250e-03	2.105320e-09	2	true
12.3574       	DICPCG	4.859770e-03	2.944460e-09	2	true
12.434        	DICPCG	5.421590e-03	4.441000e-09	2	true
12.5257       	DICPCG	6.388340e-03	7.576430e-09	2	true
12.5958       	DICPCG	4.905820e-03	3.285180e-09	2	true
12.6443       	DICPCG	3.340200e-03	1.040930e-09	2	true
12.6929       	DICPCG	3.277680e-03	1.025450e-09	2	true
12.7512       	DICPCG	3.867980e-03	1.762780e-09	2	true
12.8212       	DICPCG	4.530880e-03	2.994490e-09	2	true
12.9052       	DICPCG	5.370600e-03	5.138350e-09	2	true
13.006        	DICPCG	6.361450e-03	8.741100e-09	2	true
13.1213       	DICPCG	7.717890e-03	1.362310e-08	2	true
13.1432       	DICPCG	1.511340e-03	3.608010e-07	1	true
13.1693       	DICPCG	1.836110e-03	5.232780e-07	1	true
13.2007       	DICPCG	2.224430e-03	7.593650e-07	1	true
13.2384       	DICPCG	2.703260e-03	4.539220e-10	2	true
13.2837       	DICPCG	3.281040e-03	8.026510e-10	2	true
13.3379       	DICPCG	3.967200e-03	1.415070e-09	2	true
13.4031       	DICPCG	4.777100e-03	2.509090e-09	2	true
13.4814       	DICPCG	5.728610e-03	4.468800e-09	2	true
13.5751       	DICPCG	6.791380e-03	7.797430e-09	2	true
13.6871       	DICPCG	8.035750e-03	1.362270e-08	2	true
13.8217       	DICPCG	9.504540e-03	2.414210e-08	2	true
13.9838       	DICPCG	1.126030e-02	4.307240e-08	2	true
14.1643       	DICPCG	1.266320e-02	6.112870e-08	2	true
14.178        	DICPCG	9.954670e-04	1.494380e-07	1	true
14.194        	DICPCG	1.216500e-03	2.078640e-07	1	true
14.2132       	DICPCG	1.516320e-03	2.949180e-07	1	true
14.2362       	DICPCG	1.887950e-03	4.128440e-07	1	true
14.2638       	DICPCG	2.350630e-03	5.711210e-07	1	true
14.2969       	DICPCG	2.923980e-03	7.920440e-07	1	true
14.3365       	DICPCG	3.616840e-03	5.672950e-10	2	true
14.3839       	DICPCG	4.443140e-03	9.790680e-10	2	true
14.4404       	DICPCG	5.395520e-03	1.674340e-09	2	true
14.5077       	DICPCG	6.471320e-03	2.856730e-09	2	true
14.5877       	DICPCG	7.669840e-03	4.865450e-09	2	true
14.6842       	DICPCG	9.077180e-03	8.633150e-09	2	true
14.7988       	DICPCG	1.048490e-02	1.479650e-08	2	true
14.9366       	DICPCG	1.213050e-02	2.653300e-08	2	true
15.0964       	DICPCG	1.347500e-02	4.093700e-08	2	true
15.2064       	DICPCG	9.029830e-03	1.360020e-08	2	true
15.2239       	DICPCG	1.490320e-03	2.453060e-07	1	true
15.2446       	DICPCG	1.803400e-03	3.722010e-07	1	true
15.2691       	DICPCG	2.173110e-03	5.639930e-07	1	true
15.2982       	DICPCG	2.618160e-03	8.396210e-07	1	true
15.3329       	DICPCG	3.173770e-03	5.477100e-10	2	true
15.3744       	DICPCG	3.876100e-03	9.815730e-10	2	true
15.4243       	DICPCG	4.741810e-03	1.784100e-09	2	true
15.4841       	DICPCG	5.783000e-03	3.229980e-09	2	true
15.5556       	DICPCG	6.968610e-03	5.716390e-09	2	true
15.6407       	DICPCG	8.291550e-03	9.742140e-09	2	true
15.7414       	DICPCG	9.739220e-03	1.608320e-08	2	true
15.8601       	DICPCG	1.134880e-02	2.594430e-08	2	true
16.0007       	DICPCG	1.324010e-02	4.199510e-08	2	true
16.1586       	DICPCG	1.455650e-02	5.781250e-08	2	true
16.1877       	DICPCG	2.872730e-03	3.790290e-10	2	true
16.2223       	DICPCG	3.458250e-03	6.725610e-10	2	true
16.2639       	DICPCG	4.183500e-03	1.196440e-09	2	true
16.3139       	DICPCG	4.953980e-03	2.084590e-09	2	true
16.3738       	DICPCG	5.870480e-03	3.574770e-09	2	true
16.4451       	DICPCG	6.826190e-03	5.908320e-09	2	true
16.5298       	DICPCG	7.904770e-03	9.589040e-09	2	true
16.6294       	DICPCG	9.023950e-03	1.501990e-08	2	true
16.7441       	DICPCG	1.006150e-02	2.217500e-08	2	true
16.8772       	DICPCG	1.151130e-02	3.487820e-08	2	true
16.9473       	DICPCG	5.897680e-03	4.798640e-09	2	true
17.0052       	DICPCG	4.776880e-03	2.689920e-09	2	true
17.0306       	DICPCG	2.068470e-03	6.765230e-07	1	true
17.061        	DICPCG	2.454520e-03	9.592430e-07	1	true
17.0974       	DICPCG	2.913680e-03	6.758940e-10	2	true
17.1411       	DICPCG	3.456060e-03	1.174020e-09	2	true
17.1935       	DICPCG	4.088480e-03	2.034770e-09	2	true
17.2564       	DICPCG	4.829540e-03	3.525040e-09	2	true
17.3323       	DICPCG	5.712100e-03	6.148940e-09	2	true
17.4236       	DICPCG	6.723440e-03	1.058640e-08	2	true
17.5334       	DICPCG	7.897130e-03	1.822320e-08	2	true
17.6644       	DICPCG	9.166860e-03	3.056690e-08	2	true
17.8205       	DICPCG	1.058530e-02	5.093560e-08	2	true
18.0094       	DICPCG	1.241280e-02	8.892200e-08	2	true
18.2279       	DICPCG	1.401230e-02	1.353940e-07	2	true
18.2344       	DICPCG	4.157850e-04	3.519890e-08	1	true
18.2422       	DICPCG	5.078020e-04	5.203260e-08	1	true
18.2516       	DICPCG	6.234200e-04	7.726820e-08	1	true
18.2628       	DICPCG	7.644760e-04	1.145520e-07	1	true
18.2763       	DICPCG	9.382270e-04	1.697880e-07	1	true
18.2924       	DICPCG	1.148320e-03	2.509830e-07	1	true
18.3118       	DICPCG	1.403710e-03	3.705830e-07	1	true
18.3351       	DICPCG	1.719010e-03	5.498260e-07	1	true
18.3631       	DICPCG	2.105570e-03	8.164490e-07	1	true
18.3968       	DICPCG	2.581580e-03	5.150750e-10	2	true
18.4373       	DICPCG	3.160860e-03	9.282380e-10	2	true
18.4859       	DICPCG	3.851310e-03	1.645570e-09	2	true
18.5441       	DICPCG	4.663210e-03	2.853200e-09	2	true
18.6135       	DICPCG	5.611390e-03	4.840900e-09	2	true
18.6964       	DICPCG	6.766410e-03	8.126190e-09	2	true
18.7965       	DICPCG	8.239430e-03	1.388410e-08	2	true
18.9158       	DICPCG	9.895350e-03	2.280070e-08	2	true
19.0573       	DICPCG	1.177100e-02	3.727740e-08	2	true
19.2271       	DICPCG	1.411470e-02	6.391110e-08	2	true
19.4262       	DICPCG	1.611300e-02	1.034140e-07	2	true
19.4623       	DICPCG	3.040670e-03	5.146900e-10	2	true
19.5025       	DICPCG	3.408060e-03	7.107550e-10	2	true
19.5507       	DICPCG	4.127190e-03	1.238840e-09	2	true
19.6087       	DICPCG	4.952920e-03	2.172260e-09	2	true
19.6778       	DICPCG	5.869620e-03	3.711740e-09	2	true
19.7609       	DICPCG	7.002570e-03	6.466980e-09	2	true
19.8617       	DICPCG	8.342020e-03	1.147900e-08	2	true
19.9812       	DICPCG	9.668380e-03	1.898470e-08	2	true
20.1246       	DICPCG	1.127710e-02	3.321800e-08	2	true
20.26         	DICPCG	1.029000e-02	2.725450e-08	2	true
20.2804       	DICPCG	1.612870e-03	3.377290e-07	1	true
20.3049       	DICPCG	1.971370e-03	5.040870e-07	1	true
20.3342       	DICPCG	2.379720e-03	7.443880e-07	1	true
20.3693       	DICPCG	2.831330e-03	5.159480e-10	2	true
20.4114       	DICPCG	3.351690e-03	9.118220e-10	2	true
20.4618       	DICPCG	3.966380e-03	1.580410e-09	2	true
20.5224       	DICPCG	4.717710e-03	2.697440e-09	2	true
20.5946       	DICPCG	5.638390e-03	4.491490e-09	2	true
20.681        	DICPCG	6.778910e-03	7.469640e-09	2	true
20.7838       	DICPCG	8.059830e-03	1.222050e-08	2	true
20.9078       	DICPCG	9.644580e-03	2.111590e-08	2	true
21.0539       	DICPCG	1.117920e-02	3.418320e-08	2	true
21.2184       	DICPCG	1.239950e-02	4.847650e-08	2	true
21.2599       	DICPCG	3.108530e-03	6.692000e-10	2	true
21.3061       	DICPCG	3.457260e-03	9.199530e-10	2	true
21.3612       	DICPCG	4.074640e-03	1.535920e-09	2	true
21.4274       	DICPCG	4.844590e-03	2.607830e-09	2	true
21.5068       	DICPCG	5.755560e-03	4.460190e-09	2	true
21.6012       	DICPCG	6.766650e-03	7.412950e-09	2	true
21.7145       	DICPCG	8.160420e-03	1.302010e-08	2	true
21.8278       	DICPCG	8.005820e-03	1.281830e-08	2	true
21.8472       	DICPCG	1.427130e-03	2.922320e-07	1	true
21.8703       	DICPCG	1.729050e-03	4.236480e-07	1	true
21.8979       	DICPCG	2.107600e-03	6.214390e-07	1	true
21.9313       	DICPCG	2.543270e-03	8.965090e-07	1	true
21.9712       	DICPCG	3.015870e-03	5.404030e-10	2	true
22.0192       	DICPCG	3.595820e-03	9.557430e-10	2	true
22.0766       	DICPCG	4.229560e-03	1.627600e-09	2	true
22.1445       	DICPCG	4.941890e-03	2.720580e-09	2	true
22.2261       	DICPCG	5.846110e-03	4.718010e-09	2	true
22.3252       	DICPCG	6.959030e-03	8.476480e-09	2	true
22.4415       	DICPCG	7.972600e-03	1.366620e-08	2	true
22.5836       	DICPCG	9.483680e-03	2.505930e-08	2	true
22.7447       	DICPCG	1.051230e-02	3.614870e-08	2	true
22.8634       	DICPCG	7.933160e-03	1.448740e-08	2	true
22.8979       	DICPCG	2.435000e-03	8.732620e-07	1	true
22.9368       	DICPCG	2.864800e-03	5.654270e-10	2	true
22.9827       	DICPCG	3.442040e-03	9.509840e-10	2	true
23.0372       	DICPCG	4.107200e-03	1.596540e-09	2	true
23.1026       	DICPCG	4.948920e-03	2.717500e-09	2	true
23.1817       	DICPCG	6.000290e-03	4.641710e-09	2	true
23.2774       	DICPCG	7.163720e-03	7.918420e-09	2	true
23.3922       	DICPCG	8.385030e-03	1.333500e-08	2	true
23.5262       	DICPCG	9.457850e-03	2.100700e-08	2	true
23.5876       	DICPCG	4.295880e-03	1.831430e-09	2	true
23.6304       	DICPCG	2.959000e-03	5.981700e-10	2	true
23.6811       	DICPCG	3.496250e-03	1.004800e-09	2	true
23.7411       	DICPCG	4.104090e-03	1.673720e-09	2	true
23.811        	DICPCG	4.765110e-03	2.688940e-09	2	true
23.8959       	DICPCG	5.738590e-03	4.901820e-09	2	true
23.9963       	DICPCG	6.724650e-03	8.232720e-09	2	true
24.1218       	DICPCG	8.282730e-03	1.644020e-08	2	true
24.2681       	DICPCG	9.608970e-03	2.696900e-08	2	true
24.3495       	DICPCG	5.390340e-03	4.252830e-09	2	true
24.3704       	DICPCG	1.422980e-03	3.039410e-07	1	true
24.3947       	DICPCG	1.674210e-03	4.128580e-07	1	true
24.4235       	DICPCG	2.030690e-03	5.898240e-07	1	true
24.4574       	DICPCG	2.413330e-03	8.166410e-07	1	true
24.4991       	DICPCG	2.996060e-03	5.628520e-10	2	true
24.5492       	DICPCG	3.612350e-03	1.009740e-09	2	true
24.6056       	DICPCG	4.055410e-03	1.474650e-09	2	true
24.6713       	DICPCG	4.719660e-03	2.393410e-09	2	true
24.7535       	DICPCG	5.866540e-03	4.843940e-09	2	true
24.8767       	DICPCG	8.684660e-03	1.719200e-08	2	true
25            	DICPCG	8.519230e-03	1.680280e-08	2	true
25.1479       	DICPCG	9.924240e-03	2.910320e-08	2	true
25.3158       	DICPCG	1.123010e-02	4.169770e-08	2	true
25.3383       	DICPCG	1.495500e-03	3.597700e-07	1	true
25.3647       	DICPCG	1.736780e-03	5.104950e-07	1	true
25.3962       	DICPCG	2.054310e-03	7.412330e-07	1	true
25.4339       	DICPCG	2.459960e-03	4.306760e-10	2	true
25.4792       	DICPCG	2.976460e-03	7.387480e-10	2	true
25.5334       	DICPCG	3.616180e-03	1.275580e-09	2	true
25.5985       	DICPCG	4.392750e-03	2.228500e-09	2	true
25.6765       	DICPCG	5.314940e-03	3.882060e-09	2	true
25.77         	DICPCG	6.413140e-03	6.777200e-09	2	true
25.8822       	DICPCG	7.679420e-03	1.187410e-08	2	true
26.0169       	DICPCG	9.114300e-03	2.097270e-08	2	true
26.1737       	DICPCG	1.050960e-02	3.345440e-08	2	true
26.2297       	DICPCG	3.854110e-03	1.354320e-09	2	true
26.2604       	DICPCG	2.222110e-03	7.658330e-07	1	true
26.2973       	DICPCG	2.713470e-03	4.115540e-10	2	true
26.3406       	DICPCG	3.255820e-03	6.942900e-10	2	true
26.3924       	DICPCG	3.924070e-03	1.219030e-09	2	true
26.454        	DICPCG	4.692330e-03	2.095270e-09	2	true
26.5276       	DICPCG	5.588970e-03	3.588140e-09	2	true
26.6155       	DICPCG	6.625400e-03	6.133990e-09	2	true
26.7204       	DICPCG	7.782150e-03	1.035970e-08	2	true
26.8442       	DICPCG	9.038980e-03	1.696370e-08	2	true
26.9927       	DICPCG	1.058170e-02	2.916320e-08	2	true
27.1606       	DICPCG	1.187320e-02	4.255480e-08	2	true
27.2135       	DICPCG	3.818010e-03	1.155510e-09	2	true
27.2597       	DICPCG	3.389290e-03	7.696150e-10	2	true
27.3152       	DICPCG	4.020350e-03	1.325320e-09	2	true
27.3811       	DICPCG	4.718080e-03	2.226360e-09	2	true
27.4602       	DICPCG	5.526240e-03	3.813320e-09	2	true
27.5549       	DICPCG	6.526190e-03	6.562280e-09	2	true
27.6683       	DICPCG	7.547750e-03	1.119410e-08	2	true
27.7988       	DICPCG	8.846450e-03	1.757090e-08	2	true
27.8205       	DICPCG	1.492340e-03	3.040680e-07	1	true
27.8461       	DICPCG	1.803300e-03	4.467340e-07	1	true
27.8768       	DICPCG	2.201670e-03	6.698080e-07	1	true
27.9137       	DICPCG	2.683830e-03	3.983350e-10	2	true
27.958        	DICPCG	3.263790e-03	7.255450e-10	2	true
28.0111       	DICPCG	3.949140e-03	1.307080e-09	2	true
28.0748       	DICPCG	4.752740e-03	2.326520e-09	2	true
28.1512       	DICPCG	5.682990e-03	4.074630e-09	2	true
28.243        	DICPCG	6.763230e-03	7.071740e-09	2	true
28.3529       	DICPCG	7.965490e-03	1.201600e-08	2	true
28.4849       	DICPCG	9.372830e-03	2.058080e-08	2	true
28.6431       	DICPCG	1.096230e-02	3.547080e-08	2	true
28.7041       	DICPCG	4.260550e-03	1.755920e-09	2	true
28.7345       	DICPCG	2.170330e-03	6.936300e-07	1	true
28.771        	DICPCG	2.599090e-03	9.773980e-07	1	true
28.8147       	DICPCG	3.119210e-03	6.515410e-10	2	true
28.8673       	DICPCG	3.723820e-03	1.138730e-09	2	true
28.9304       	DICPCG	4.433750e-03	1.993880e-09	2	true
29.0062       	DICPCG	5.270510e-03	3.505550e-09	2	true
29.0967       	DICPCG	6.225040e-03	6.115810e-09	2	true
29.2044       	DICPCG	7.333980e-03	1.068820e-08	2	true
29.332        	DICPCG	8.627010e-03	1.835860e-08	2	true
29.484        	DICPCG	1.017940e-02	3.200210e-08	2	true
29.6624       	DICPCG	1.195260e-02	5.367180e-08	2	true
29.8637       	DICPCG	1.332290e-02	8.028700e-08	2	true
29.8802       	DICPCG	1.185600e-03	2.412580e-07	1	true
29.8991       	DICPCG	1.441100e-03	3.415650e-07	1	true
29.921        	DICPCG	1.743640e-03	4.774850e-07	1	true
29.9465       	DICPCG	2.088830e-03	6.577140e-07	1	true
29.9763       	DICPCG	2.487610e-03	9.031020e-07	1	true
30.0109       	DICPCG	2.938900e-03	4.814910e-10	2	true
30.0512       	DICPCG	3.444810e-03	7.651060e-10	2	true
30.0981       	DICPCG	4.030250e-03	1.225480e-09	2	true
30.1532       	DICPCG	4.713990e-03	2.002790e-09	2	true
30.2185       	DICPCG	5.520290e-03	3.319370e-09	2	true
30.2967       	DICPCG	6.488260e-03	5.601770e-09	2	true
30.3905       	DICPCG	7.591640e-03	9.388260e-09	2	true
30.5032       	DICPCG	8.848990e-03	1.574290e-08	2	true
30.6377       	DICPCG	1.021600e-02	2.618970e-08	2	true
30.7977       	DICPCG	1.181480e-02	4.418180e-08	2	true
30.9789       	DICPCG	1.266710e-02	6.336260e-08	2	true
31.0023       	DICPCG	1.679470e-03	4.521720e-07	1	true
31.0297       	DICPCG	2.016650e-03	6.296440e-07	1	true
31.0625       	DICPCG	2.482480e-03	9.171790e-07	1	true
31.1019       	DICPCG	3.047840e-03	6.292430e-10	2	true
31.1491       	DICPCG	3.724930e-03	1.099040e-09	2	true
31.2058       	DICPCG	4.521620e-03	1.905660e-09	2	true
31.2736       	DICPCG	5.467240e-03	3.313730e-09	2	true
31.355        	DICPCG	6.589880e-03	5.783010e-09	2	true
31.4526       	DICPCG	7.874280e-03	1.004530e-08	2	true
31.57         	DICPCG	9.330730e-03	1.750910e-08	2	true
31.7107       	DICPCG	1.087020e-02	3.010780e-08	2	true
31.8726       	DICPCG	1.195440e-02	4.543940e-08	2	true
31.9569       	DICPCG	6.327450e-03	6.176910e-09	2	true
31.9838       	DICPCG	2.133730e-03	6.615600e-07	1	true
32.0154       	DICPCG	2.554760e-03	9.460640e-07	1	true
32.053        	DICPCG	3.101740e-03	6.137030e-10	2	true
32.0982       	DICPCG	3.730340e-03	1.074830e-09	2	true
32.1524       	DICPCG	4.440680e-03	1.835720e-09	2	true
32.2176       	DICPCG	5.224580e-03	3.092000e-09	2	true
32.2956       	DICPCG	6.078430e-03	5.151340e-09	2	true
32.3883       	DICPCG	6.940230e-03	8.448190e-09	2	true
32.4977       	DICPCG	7.834010e-03	1.363290e-08	2	true
32.6273       	DICPCG	8.845090e-03	2.239090e-08	2	true
32.7784       	DICPCG	9.871940e-03	3.509820e-08	2	true
32.9506       	DICPCG	1.057110e-02	5.004260e-08	2	true
32.9869       	DICPCG	2.275090e-03	9.761700e-07	1	true
33.0098       	DICPCG	1.443540e-03	4.037650e-07	1	true
33.0374       	DICPCG	1.744190e-03	5.948750e-07	1	true
33.0704       	DICPCG	2.109300e-03	8.691220e-07	1	true
33.1101       	DICPCG	2.536280e-03	6.065500e-10	2	true
33.1577       	DICPCG	3.036760e-03	1.060140e-09	2	true
33.2147       	DICPCG	3.622670e-03	1.839190e-09	2	true
33.2833       	DICPCG	4.299350e-03	3.159990e-09	2	true
33.3656       	DICPCG	5.085150e-03	5.424700e-09	2	true
33.4646       	DICPCG	5.962490e-03	9.286760e-09	2	true
33.5836       	DICPCG	6.954820e-03	1.590870e-08	2	true
33.7263       	DICPCG	7.983170e-03	2.716980e-08	2	true
33.8891       	DICPCG	8.854600e-03	4.076120e-08	2	true
33.9307       	DICPCG	2.285740e-03	6.410970e-10	2	true
33.9775       	DICPCG	2.599090e-03	9.389590e-10	2	true
34.032        	DICPCG	3.074790e-03	1.468480e-09	2	true
34.0952       	DICPCG	3.536820e-03	2.174910e-09	2	true
34.1695       	DICPCG	4.183860e-03	3.467000e-09	2	true
34.256        	DICPCG	4.737720e-03	5.311110e-09	2	true
34.3563       	DICPCG	5.399280e-03	8.251560e-09	2	true
34.3945       	DICPCG	2.023250e-03	8.805760e-07	1	true
34.4404       	DICPCG	2.402750e-03	7.242970e-10	2	true
34.4954       	DICPCG	2.841580e-03	1.251660e-09	2	true
34.5614       	DICPCG	3.375000e-03	2.186160e-09	2	true
34.6405       	DICPCG	4.000870e-03	3.820950e-09	2	true
34.7354       	DICPCG	4.734860e-03	6.642920e-09	2	true
34.8493       	DICPCG	5.609380e-03	1.169970e-08	2	true
34.9858       	DICPCG	6.630130e-03	2.040170e-08	2	true
35.149        	DICPCG	7.827090e-03	3.514520e-08	2	true
35.2828       	DICPCG	6.327770e-03	1.819180e-08	2	true
35.3133       	DICPCG	1.423020e-03	5.376410e-07	1	true
35.3499       	DICPCG	1.702700e-03	7.681640e-07	1	true
35.3939       	DICPCG	2.028300e-03	6.174990e-10	2	true
35.4466       	DICPCG	2.420740e-03	1.054830e-09	2	true
35.5099       	DICPCG	2.890530e-03	1.802110e-09	2	true
35.5858       	DICPCG	3.463170e-03	3.065830e-09	2	true
35.677        	DICPCG	4.170020e-03	5.307610e-09	2	true
35.7863       	DICPCG	5.013770e-03	9.212360e-09	2	true
35.9121       	DICPCG	5.771970e-03	1.410910e-08	2	true
36.0007       	DICPCG	4.248710e-03	4.869060e-09	2	true
36.0273       	DICPCG	1.358130e-03	3.817950e-07	1	true
36.0592       	DICPCG	1.660490e-03	5.359470e-07	1	true
36.097        	DICPCG	1.997250e-03	7.405430e-07	1	true
36.142        	DICPCG	2.386650e-03	6.258000e-10	2	true
36.1955       	DICPCG	2.838260e-03	1.074170e-09	2	true
36.2591       	DICPCG	3.374720e-03	1.843280e-09	2	true
36.3342       	DICPCG	3.973260e-03	3.088050e-09	2	true
36.4218       	DICPCG	4.611100e-03	4.985000e-09	2	true
36.5231       	DICPCG	5.298570e-03	7.836780e-09	2	true
36.6403       	DICPCG	6.068990e-03	1.227240e-08	2	true
36.7752       	DICPCG	6.929850e-03	1.893870e-08	2	true
36.9346       	DICPCG	8.099330e-03	3.150660e-08	2	true
37.0002       	DICPCG	3.446580e-03	2.014650e-09	2	true
37.0352       	DICPCG	1.940880e-03	7.590240e-07	1	true
37.0769       	DICPCG	2.362960e-03	5.058440e-10	2	true
37.127        	DICPCG	2.872680e-03	8.940740e-10	2	true
37.1871       	DICPCG	3.448390e-03	1.568300e-09	2	true
37.2591       	DICPCG	4.101310e-03	2.731380e-09	2	true
37.3452       	DICPCG	4.843680e-03	4.748010e-09	2	true
37.4481       	DICPCG	5.701250e-03	8.253910e-09	2	true
37.5711       	DICPCG	6.700440e-03	1.425340e-08	2	true
37.7092       	DICPCG	7.642480e-03	2.105840e-08	2	true
37.7318       	DICPCG	1.289310e-03	3.218290e-07	1	true
37.7578       	DICPCG	1.519070e-03	4.255410e-07	1	true
37.7889       	DICPCG	1.847250e-03	6.068840e-07	1	true
37.8262       	DICPCG	2.223870e-03	8.638630e-07	1	true
37.871        	DICPCG	2.662230e-03	6.580040e-10	2	true
37.9247       	DICPCG	3.177900e-03	1.144080e-09	2	true
37.9892       	DICPCG	3.802920e-03	2.006720e-09	2	true
38.0667       	DICPCG	4.542360e-03	3.491360e-09	2	true
38.16         	DICPCG	5.436450e-03	6.127160e-09	2	true
38.2717       	DICPCG	6.474430e-03	1.062400e-08	2	true
38.4049       	DICPCG	7.659740e-03	1.825110e-08	2	true
38.5638       	DICPCG	8.932600e-03	3.099450e-08	2	true
38.6331       	DICPCG	4.025150e-03	2.330580e-09	2	true
38.6606       	DICPCG	1.647970e-03	4.975170e-07	1	true
38.6937       	DICPCG	2.006140e-03	7.288110e-07	1	true
38.7333       	DICPCG	2.435090e-03	4.409230e-10	2	true
38.7809       	DICPCG	2.932840e-03	7.699340e-10	2	true
38.8378       	DICPCG	3.527490e-03	1.337960e-09	2	true
38.9063       	DICPCG	4.249660e-03	2.338860e-09	2	true
38.9885       	DICPCG	5.100090e-03	4.059940e-09	2	true
39.0868       	DICPCG	6.092270e-03	7.011770e-09	2	true
39.2041       	DICPCG	7.246090e-03	1.209810e-08	2	true
39.3444       	DICPCG	8.605600e-03	2.100610e-08	2	true
39.5034       	DICPCG	9.666150e-03	3.102410e-08	2	true
39.5276       	DICPCG	1.496420e-03	3.798980e-07	1	true
39.5556       	DICPCG	1.741140e-03	5.077500e-07	1	true
39.589        	DICPCG	2.071220e-03	7.242260e-07	1	true
39.6289       	DICPCG	2.456790e-03	4.206540e-10	2	true
39.6767       	DICPCG	2.902800e-03	7.268120e-10	2	true
39.7337       	DICPCG	3.400900e-03	1.230600e-09	2	true
39.8017       	DICPCG	3.964230e-03	2.066560e-09	2	true
39.882        	DICPCG	4.578340e-03	3.406980e-09	2	true
39.9766       	DICPCG	5.260370e-03	5.592890e-09	2	true
40.0867       	DICPCG	5.957720e-03	8.883340e-09	2	true
40.2155       	DICPCG	6.785610e-03	1.435090e-08	2	true
40.3615       	DICPCG	7.392010e-03	2.063550e-08	2	true
40.446        	DICPCG	4.388190e-03	3.874010e-09	2	true
40.4918       	DICPCG	2.409530e-03	5.866470e-10	2	true
40.5467       	DICPCG	2.915000e-03	1.048960e-09	2	true
40.6128       	DICPCG	3.497300e-03	1.849640e-09	2	true
40.6924       	DICPCG	4.206540e-03	3.268680e-09	2	true
40.7874       	DICPCG	4.962320e-03	5.548250e-09	2	true