x,T
-0.0099,298.049
-0.00938421,297.529
-0.00886842,297.008
-0.00835263,296.488
-0.00783684,295.967
-0.00732105,295.447
-0.00680526,294.927
-0.00628947,294.406
-0.00577368,293.886
-0.00525789,293.382
-0.00474211,292.962
-0.00422632,292.542
-0.00371053,292.121
-0.00319474,291.701
-0.00267895,291.281
-0.00216316,290.86
-0.00164737,290.44
-0.00113158,290.02
-0.000615789,289.599
-0.0001,289.179
