x,T
-0.0099,298.044
-0.00938421,297.495
-0.00886842,296.947
-0.00835263,296.398
-0.00783684,295.849
-0.00732105,295.301
-0.00680526,294.752
-0.00628947,294.204
-0.00577368,293.655
-0.00525789,293.137
-0.00474211,292.769
-0.00422632,292.4
-0.00371053,292.031
-0.00319474,291.663
-0.00267895,291.294
-0.00216316,290.926
-0.00164737,290.557
-0.00113158,290.189
-0.000615789,289.82
-0.0001,289.451
