x,T
-0.0099,298.033
-0.00938421,297.429
-0.00886842,296.824
-0.00835263,296.22
-0.00783684,295.616
-0.00732105,295.012
-0.00680526,294.408
-0.00628947,293.804
-0.00577368,293.199
-0.00525789,292.629
-0.00474211,292.224
-0.00422632,291.82
-0.00371053,291.416
-0.00319474,291.011
-0.00267895,290.607
-0.00216316,290.203
-0.00164737,289.798
-0.00113158,289.394
-0.000615789,288.989
-0.0001,288.585
