x,T
-0.0099,298.018
-0.00938421,297.338
-0.00886842,296.658
-0.00835263,295.978
-0.00783684,295.298
-0.00732105,294.617
-0.00680526,293.937
-0.00628947,293.257
-0.00577368,292.577
-0.00525789,291.95
-0.00474211,291.588
-0.00422632,291.226
-0.00371053,290.863
-0.00319474,290.501
-0.00267895,290.139
-0.00216316,289.776
-0.00164737,289.414
-0.00113158,289.052
-0.000615789,288.689
-0.0001,288.327
