x,T
-0.0099,298.062
-0.00938421,297.607
-0.00886842,297.152
-0.00835263,296.697
-0.00783684,296.242
-0.00732105,295.787
-0.00680526,295.332
-0.00628947,294.877
-0.00577368,294.422
-0.00525789,293.968
-0.00474211,293.524
-0.00422632,293.079
-0.00371053,292.634
-0.00319474,292.19
-0.00267895,291.745
-0.00216316,291.3
-0.00164737,290.856
-0.00113158,290.411
-0.000615789,289.966
-0.0001,289.521
