# Probe 0 (0.021 0.05 0.05)
# Probe 1 (0.05 0.05 0.05)
# Probe 2 (0.079 0.05 0.05)
# Time        0             1             2            
4.01638       285.65        285.65        285.65       
8.39172       285.651       285.65        285.649      
11.8908       285.653       285.65        285.645      
16.3149       285.664       285.65        285.64       
20.9126       285.679       285.65        285.627      
24.3205       285.7         285.65        285.611      
27.8513       285.703       285.65        285.609      
31.5935       285.713       285.65        285.605      
35.5342       285.733       285.65        285.593      
39.5623       285.741       285.65        285.597      
43.6627       285.705       285.65        285.613      
47.7376       285.706       285.65        285.628      
51.4757       285.774       285.65        285.636      
55.2929       285.746       285.65        285.649      
58.9988       285.687       285.65        285.666      
62.9299       285.653       285.65        285.682      
66.9374       285.71        285.65        285.678      
70.8142       285.825       285.65        285.685      
75.0988       285.853       285.65        285.713      
79.1829       285.901       285.65        285.741      
82.8957       285.958       285.65        285.719      
86.712        285.894       285.65        285.769      
90.4386       285.873       285.65        285.744      
94.1663       285.891       285.65        285.753      
98.3134       285.925       285.65        285.76       
102.293       285.887       285.65        285.797      
106.071       285.865       285.65        285.834      
109.993       285.832       285.65        285.825      
113.648       285.824       285.65        285.869      
117.696       285.897       285.65        285.824      
121.454       285.771       285.65        285.887      
125.066       285.895       285.65        285.859      
128.873       285.885       285.65        285.875      
132.939       285.943       285.65        285.879      
136.716       285.98        285.65        285.861      
140.274       285.834       285.649       285.916      
143.994       285.859       285.649       285.888      
148.111       285.741       285.649       285.935      
151.595       285.823       285.649       285.855      
155.399       285.868       285.649       285.82       
159.381       285.827       285.649       285.782      
162.564       285.921       285.649       285.805      
166.298       285.793       285.649       285.824      
170.485       285.838       285.648       285.786      
173.683       285.959       285.648       285.789      
178.007       285.948       285.648       285.871      
181.832       285.826       285.648       285.904      
185.634       285.785       285.648       285.973      
189.542       285.834       285.647       285.975      
193.298       285.873       285.647       286.01       
196.89        285.748       285.647       286.001      
200.632       285.777       285.647       286          
204.607       285.932       285.646       285.982      
208.668       285.951       285.646       286.049      
212.243       285.902       285.646       286.042      
215.965       285.798       285.645       286.042      
219.572       285.717       285.645       286.042      
223.543       285.684       285.644       286.026      
227.619       285.919       285.644       286.052      
231.457       285.84        285.643       286.044      
235.157       285.9         285.643       286.043      
239.027       285.773       285.643       285.994      
242.91        285.825       285.642       286.033      
246.767       285.967       285.641       285.95       
