# Probe 0 (0.021 0.05 0.05)
# Probe 1 (0.05 0.05 0.05)
# Probe 2 (0.079 0.05 0.05)
# Time        0             1             2            
3.35732       285.65        285.65        285.65       
7.10657       285.651       285.65        285.65       
10.9826       285.654       285.65        285.647      
14.5877       285.663       285.65        285.644      
18.2924       285.669       285.65        285.637      
21.9712       285.681       285.65        285.627      
25.77         285.701       285.65        285.621      
29.8991       285.709       285.65        285.6        
33.5836       285.692       285.65        285.591      
37.5711       285.687       285.65        285.588      
41.234        285.657       285.65        285.613      
45.0431       285.651       285.65        285.612      
48.3293       285.621       285.65        285.58       
52.0514       285.612       285.65        285.621      
55.1659       285.587       285.65        285.64       
59.1617       285.575       285.65        285.639      
62.7499       285.564       285.65        285.681      
66.3307       285.533       285.65        285.704      
70.2316       285.531       285.65        285.713      
73.9223       285.513       285.65        285.701      
77.6191       285.518       285.65        285.681      
81.254        285.491       285.65        285.723      
85.0714       285.477       285.65        285.753      
88.8833       285.492       285.65        285.773      
92.4812       285.512       285.65        285.776      
96.52         285.473       285.65        285.774      
100.215       285.481       285.65        285.783      
103.792       285.455       285.65        285.794      
107.263       285.485       285.65        285.803      
111.084       285.418       285.65        285.812      
114.71        285.404       285.65        285.805      
118.362       285.399       285.65        285.82       
122.079       285.413       285.65        285.841      
125.74        285.402       285.651       285.823      
129.465       285.366       285.651       285.884      
132.957       285.437       285.651       285.917      
136.742       285.413       285.651       285.924      
140.677       285.439       285.651       285.896      
144.268       285.364       285.652       285.941      
148.06        285.372       285.652       285.873      
151.86        285.355       285.652       285.908      
155.206       285.356       285.653       285.987      
158.954       285.343       285.653       285.961      
162.815       285.347       285.654       285.931      
166.452       285.336       285.654       285.999      
170.241       285.317       285.655       285.994      
174.022       285.364       285.655       286.007      
177.887       285.317       285.656       285.983      
181.586       285.356       285.657       285.955      
185.228       285.314       285.658       285.927      
188.777       285.288       285.658       285.965      
192.253       285.303       285.659       285.99       
195.942       285.27        285.66        285.997      
199.338       285.283       285.661       285.997      
203.309       285.232       285.662       285.999      
207.143       285.323       285.663       285.981      
210.931       285.348       285.664       285.939      
214.695       285.294       285.665       285.955      
218.39        285.291       285.666       286.038      
222.029       285.264       285.667       286.042      
225.087       285.275       285.668       286.036      
229.156       285.295       285.67        285.998      
232.863       285.306       285.671       286.031      
236.279       285.282       285.672       286.039      
239.558       285.261       285.673       286.008      
243.183       285.267       285.675       286.068      
246.601       285.287       285.676       286.099      
