# Solver information
# Time        	h_solver      	h_initial     	h_final       	h_iters       	h_converged   
0.120192      	DICPCG	1.000000e+00	1.839750e-07	2	true
0.264006      	DICPCG	3.553960e-01	9.407120e-08	2	true
0.394196      	DICPCG	1.852340e-01	3.994780e-08	2	true
0.403028      	DICPCG	1.026430e-02	4.066090e-07	1	true
0.413402      	DICPCG	1.177260e-02	5.476950e-07	1	true
0.425658      	DICPCG	1.353320e-02	7.436910e-07	1	true
0.44026       	DICPCG	1.562190e-02	4.107960e-11	2	true
0.45774       	DICPCG	1.803290e-02	6.799300e-11	2	true
0.478716      	DICPCG	2.074970e-02	1.127270e-10	2	true
0.503841      	DICPCG	2.368520e-02	1.847230e-10	2	true
0.533934      	DICPCG	2.685800e-02	3.007740e-10	2	true
0.569914      	DICPCG	3.018550e-02	4.836770e-10	2	true
0.612773      	DICPCG	3.355560e-02	7.638520e-10	2	true
0.6639        	DICPCG	3.707370e-02	1.202630e-09	2	true
0.724892      	DICPCG	4.064810e-02	1.880080e-09	2	true
0.797572      	DICPCG	4.417170e-02	2.907320e-09	2	true
0.884319      	DICPCG	4.770700e-02	4.484690e-09	2	true
0.98782       	DICPCG	5.111460e-02	6.861080e-09	2	true
1.11096       	DICPCG	5.421780e-02	1.033750e-08	2	true
1.25752       	DICPCG	5.714500e-02	1.549790e-08	2	true
1.42833       	DICPCG	5.868680e-02	2.170840e-08	2	true
1.62476       	DICPCG	5.932140e-02	2.913910e-08	2	true
1.65584       	DICPCG	8.745240e-03	1.039530e-10	2	true
1.69074       	DICPCG	9.622050e-03	1.442150e-10	2	true
1.73243       	DICPCG	1.123860e-02	2.408050e-10	2	true
1.78226       	DICPCG	1.307560e-02	4.005190e-10	2	true
1.8421        	DICPCG	1.522450e-02	6.737750e-10	2	true
1.91379       	DICPCG	1.759600e-02	1.120020e-09	2	true
1.99962       	DICPCG	2.020650e-02	1.847080e-09	2	true
2.10276       	DICPCG	2.315370e-02	3.065190e-09	2	true
2.22653       	DICPCG	2.631230e-02	5.032100e-09	2	true
2.37441       	DICPCG	2.956100e-02	8.100610e-09	2	true
2.54452       	DICPCG	3.178480e-02	1.156350e-08	2	true
2.62769       	DICPCG	1.479610e-02	1.265770e-09	2	true
2.6933        	DICPCG	1.134710e-02	6.018810e-10	2	true
2.77212       	DICPCG	1.326660e-02	1.017880e-09	2	true
2.86671       	DICPCG	1.542270e-02	1.708230e-09	2	true
2.98021       	DICPCG	1.783790e-02	2.853530e-09	2	true
3.11614       	DICPCG	2.047320e-02	4.713010e-09	2	true
3.15814       	DICPCG	6.157740e-03	1.329920e-10	2	true
3.20583       	DICPCG	6.891250e-03	1.920000e-10	2	true
3.26303       	DICPCG	8.129260e-03	3.263720e-10	2	true
3.3316        	DICPCG	9.555400e-03	5.522830e-10	2	true
3.41399       	DICPCG	1.121900e-02	9.382050e-10	2	true
3.51301       	DICPCG	1.312320e-02	1.589370e-09	2	true
3.63172       	DICPCG	1.524430e-02	2.661930e-09	2	true
3.77418       	DICPCG	1.763480e-02	4.450580e-09	2	true
3.93621       	DICPCG	1.925270e-02	6.303330e-09	2	true
3.97416       	DICPCG	4.407330e-03	7.485670e-07	1	true
4.01638       	DICPCG	4.852860e-03	9.165070e-07	1	true
4.06575       	DICPCG	5.609230e-03	1.669500e-10	2	true
4.12342       	DICPCG	6.464260e-03	2.627540e-10	2	true
4.19187       	DICPCG	7.553160e-03	4.331880e-10	2	true
4.27315       	DICPCG	8.806880e-03	7.137270e-10	2	true
4.36956       	DICPCG	1.022540e-02	1.168520e-09	2	true
4.48354       	DICPCG	1.179550e-02	1.889430e-09	2	true
4.61941       	DICPCG	1.366510e-02	3.121020e-09	2	true
4.77618       	DICPCG	1.526550e-02	4.656060e-09	2	true
4.83129       	DICPCG	5.259760e-03	1.945880e-10	2	true
4.89392       	DICPCG	5.904430e-03	2.824210e-10	2	true
4.96923       	DICPCG	6.996350e-03	4.844940e-10	2	true
5.05946       	DICPCG	8.240550e-03	8.212240e-10	2	true
5.16783       	DICPCG	9.699630e-03	1.398520e-09	2	true
5.29745       	DICPCG	1.132980e-02	2.344800e-09	2	true
5.44559       	DICPCG	1.260550e-02	3.416610e-09	2	true
5.48121       	DICPCG	2.988100e-03	4.766390e-07	1	true
5.52392       	DICPCG	3.556740e-03	6.798090e-07	1	true
5.57517       	DICPCG	4.230730e-03	9.694870e-07	1	true
5.63664       	DICPCG	5.021460e-03	2.306530e-10	2	true
5.71027       	DICPCG	5.940270e-03	3.919170e-10	2	true
5.79875       	DICPCG	7.035210e-03	6.716990e-10	2	true
5.90484       	DICPCG	8.289470e-03	1.140690e-09	2	true
6.03214       	DICPCG	9.746200e-03	1.937730e-09	2	true
6.18268       	DICPCG	1.125460e-02	3.140250e-09	2	true
6.35854       	DICPCG	1.279520e-02	4.890580e-09	2	true
6.42784       	DICPCG	4.958760e-03	2.889020e-10	2	true
6.45027       	DICPCG	1.595490e-03	1.605390e-07	1	true
6.47719       	DICPCG	1.907460e-03	2.302630e-07	1	true
6.50952       	DICPCG	2.279430e-03	3.302060e-07	1	true
6.54828       	DICPCG	2.717940e-03	4.718310e-07	1	true
6.59476       	DICPCG	3.236820e-03	6.731880e-07	1	true
6.65053       	DICPCG	3.853010e-03	9.606910e-07	1	true
6.7175        	DICPCG	4.582260e-03	2.489690e-10	2	true
6.79769       	DICPCG	5.424560e-03	4.231330e-10	2	true
6.894         	DICPCG	6.427870e-03	7.245660e-10	2	true
7.00932       	DICPCG	7.575280e-03	1.227420e-09	2	true
7.14771       	DICPCG	8.920900e-03	2.088950e-09	2	true
7.31301       	DICPCG	1.042300e-02	3.496510e-09	2	true
7.43014       	DICPCG	7.253160e-03	1.210490e-09	2	true
7.46018       	DICPCG	1.845730e-03	2.485480e-07	1	true
7.49619       	DICPCG	2.203150e-03	3.555550e-07	1	true
7.53941       	DICPCG	2.629230e-03	5.088100e-07	1	true
7.59122       	DICPCG	3.131290e-03	7.258120e-07	1	true
7.6534        	DICPCG	3.728200e-03	1.738850e-10	2	true
7.72785       	DICPCG	4.422830e-03	2.961460e-10	2	true
7.81734       	DICPCG	5.257970e-03	5.095240e-10	2	true
7.92473       	DICPCG	6.227120e-03	8.705880e-10	2	true
8.05312       	DICPCG	7.329760e-03	1.468320e-09	2	true
8.20718       	DICPCG	8.636060e-03	2.500420e-09	2	true
8.39172       	DICPCG	1.012390e-02	4.224950e-09	2	true
8.61316       	DICPCG	1.184560e-02	7.157540e-09	2	true
8.80824       	DICPCG	1.019290e-02	4.752890e-09	2	true
8.8172        	DICPCG	4.652070e-04	1.873760e-08	1	true
8.82796       	DICPCG	5.575900e-04	2.694560e-08	1	true
8.84086       	DICPCG	6.683420e-04	3.875930e-08	1	true
8.85635       	DICPCG	8.009090e-04	5.574040e-08	1	true
8.87495       	DICPCG	9.595120e-04	8.014050e-08	1	true
8.89726       	DICPCG	1.147830e-03	1.149210e-07	1	true
8.92401       	DICPCG	1.372640e-03	1.647520e-07	1	true
8.95609       	DICPCG	1.640910e-03	2.361400e-07	1	true
8.99457       	DICPCG	1.959370e-03	3.378800e-07	1	true
9.04043       	DICPCG	2.324040e-03	4.773560e-07	1	true
9.09453       	DICPCG	2.725720e-03	6.599170e-07	1	true
9.15815       	DICPCG	3.183770e-03	9.056390e-07	1	true
9.23288       	DICPCG	3.709930e-03	2.489350e-10	2	true
9.32047       	DICPCG	4.308970e-03	3.977840e-10	2	true
9.42229       	DICPCG	4.955520e-03	6.189460e-10	2	true
9.53941       	DICPCG	5.632050e-03	9.323470e-10	2	true
9.67623       	DICPCG	6.487950e-03	1.468550e-09	2	true
9.79689       	DICPCG	5.648320e-03	9.918710e-10	2	true
9.82635       	DICPCG	1.372250e-03	1.814330e-07	1	true
9.85956       	DICPCG	1.541250e-03	2.295570e-07	1	true
9.89858       	DICPCG	1.804350e-03	3.156630e-07	1	true
9.9442        	DICPCG	2.100080e-03	4.292800e-07	1	true
9.99759       	DICPCG	2.444610e-03	5.843170e-07	1	true
10.0598       	DICPCG	2.832940e-03	7.888490e-07	1	true
10.1324       	DICPCG	3.277200e-03	2.073140e-10	2	true
10.2168       	DICPCG	3.786060e-03	3.239680e-10	2	true
10.3154       	DICPCG	4.375520e-03	5.102770e-10	2	true
10.4301       	DICPCG	5.038250e-03	7.974330e-10	2	true
10.5638       	DICPCG	5.797270e-03	1.247910e-09	2	true
10.6938       	DICPCG	5.571010e-03	1.134080e-09	2	true
10.7169       	DICPCG	9.844200e-04	1.020110e-07	1	true
10.7436       	DICPCG	1.136220e-03	1.361780e-07	1	true
10.7754       	DICPCG	1.350430e-03	1.928260e-07	1	true
10.8135       	DICPCG	1.608500e-03	2.743390e-07	1	true
10.8591       	DICPCG	1.921290e-03	3.927240e-07	1	true
10.9139       	DICPCG	2.297260e-03	5.637160e-07	1	true
10.9797       	DICPCG	2.742790e-03	8.074240e-07	1	true
11.0585       	DICPCG	3.259380e-03	2.427540e-10	2	true
11.1527       	DICPCG	3.866040e-03	4.101450e-10	2	true
11.2653       	DICPCG	4.575490e-03	6.944870e-10	2	true
11.3999       	DICPCG	5.409760e-03	1.177260e-09	2	true
11.5618       	DICPCG	6.415880e-03	2.024130e-09	2	true
11.7485       	DICPCG	7.280900e-03	3.059850e-09	2	true
11.7679       	DICPCG	7.540050e-04	6.572900e-08	1	true
11.7908       	DICPCG	8.895290e-04	9.162370e-08	1	true
11.8183       	DICPCG	1.062810e-03	1.310380e-07	1	true
11.8512       	DICPCG	1.271920e-03	1.880880e-07	1	true
11.8908       	DICPCG	1.523660e-03	2.706150e-07	1	true
11.9383       	DICPCG	1.820210e-03	3.874250e-07	1	true
11.9954       	DICPCG	2.175730e-03	5.556260e-07	1	true
12.0638       	DICPCG	2.596450e-03	7.948410e-07	1	true
12.1457       	DICPCG	3.085470e-03	2.483850e-10	2	true
12.2438       	DICPCG	3.668950e-03	4.216610e-10	2	true
12.3619       	DICPCG	4.375160e-03	7.283160e-10	2	true
12.5039       	DICPCG	5.201610e-03	1.254640e-09	2	true
12.6751       	DICPCG	6.187620e-03	2.175340e-09	2	true
12.8035       	DICPCG	4.592350e-03	9.028400e-10	2	true
12.8307       	DICPCG	9.709100e-04	1.187060e-07	1	true
12.8623       	DICPCG	1.124560e-03	1.595700e-07	1	true
12.8991       	DICPCG	1.304940e-03	2.153620e-07	1	true
12.9422       	DICPCG	1.522880e-03	2.940950e-07	1	true
12.9928       	DICPCG	1.784810e-03	4.052240e-07	1	true
13.0529       	DICPCG	2.105500e-03	5.659920e-07	1	true
13.1244       	DICPCG	2.495610e-03	7.985750e-07	1	true
13.2098       	DICPCG	2.961540e-03	2.597410e-10	2	true
13.3115       	DICPCG	3.496910e-03	4.314350e-10	2	true
13.432        	DICPCG	4.109420e-03	7.095320e-10	2	true
13.5748       	DICPCG	4.820220e-03	1.171400e-09	2	true
13.7453       	DICPCG	5.685510e-03	1.975380e-09	2	true
13.9361       	DICPCG	6.274080e-03	2.732720e-09	2	true
13.9807       	DICPCG	1.461570e-03	2.924610e-07	1	true
14.0308       	DICPCG	1.635180e-03	3.671790e-07	1	true
14.0907       	DICPCG	1.948700e-03	5.232040e-07	1	true
14.1625       	DICPCG	2.321740e-03	7.456100e-07	1	true
14.2485       	DICPCG	2.765960e-03	2.463050e-10	2	true
14.3519       	DICPCG	3.301010e-03	4.219760e-10	2	true
14.4757       	DICPCG	3.920400e-03	7.137970e-10	2	true
14.6199       	DICPCG	4.520630e-03	1.115320e-09	2	true
14.7197       	DICPCG	3.108240e-03	3.711270e-10	2	true
14.765        	DICPCG	1.405830e-03	2.856180e-07	1	true
14.8172       	DICPCG	1.615400e-03	3.782020e-07	1	true
14.8796       	DICPCG	1.924580e-03	5.385650e-07	1	true
14.9546       	DICPCG	2.298150e-03	7.708870e-07	1	true
15.0443       	DICPCG	2.733490e-03	2.647170e-10	2	true
15.1514       	DICPCG	3.239920e-03	4.442480e-10	2	true
15.2793       	DICPCG	3.839250e-03	7.461000e-10	2	true
15.4336       	DICPCG	4.585900e-03	1.293580e-09	2	true
15.5071       	DICPCG	2.176640e-03	7.169450e-07	1	true
15.5406       	DICPCG	9.865400e-04	1.481250e-07	1	true
15.5805       	DICPCG	1.175050e-03	2.105540e-07	1	true
15.6276       	DICPCG	1.382440e-03	2.921250e-07	1	true
15.684        	DICPCG	1.651380e-03	4.179900e-07	1	true
15.7515       	DICPCG	1.966140e-03	5.944650e-07	1	true
15.832        	DICPCG	2.330550e-03	8.385220e-07	1	true
15.9265       	DICPCG	2.722960e-03	2.927960e-10	2	true
16.0371       	DICPCG	3.166150e-03	4.640810e-10	2	true
16.1652       	DICPCG	3.635050e-03	7.092690e-10	2	true
16.3149       	DICPCG	4.212600e-03	1.116730e-09	2	true
16.4852       	DICPCG	4.742020e-03	1.625790e-09	2	true
16.5262       	DICPCG	1.137290e-03	2.090460e-07	1	true
16.5743       	DICPCG	1.333770e-03	2.881680e-07	1	true
16.632        	DICPCG	1.593210e-03	4.122660e-07	1	true
16.7012       	DICPCG	1.901420e-03	5.890440e-07	1	true
16.7842       	DICPCG	2.270560e-03	8.431120e-07	1	true
16.8831       	DICPCG	2.692580e-03	3.176410e-10	2	true
17.0025       	DICPCG	3.224420e-03	5.494620e-10	2	true
17.1453       	DICPCG	3.826060e-03	9.262370e-10	2	true
17.3161       	DICPCG	4.530080e-03	1.557600e-09	2	true
17.5131       	DICPCG	5.168960e-03	2.369920e-09	2	true
17.6265       	DICPCG	2.957900e-03	4.567770e-10	2	true
17.6682       	DICPCG	1.084030e-03	2.028340e-07	1	true
17.7161       	DICPCG	1.243650e-03	2.675490e-07	1	true
17.7721       	DICPCG	1.449610e-03	3.643920e-07	1	true
17.8391       	DICPCG	1.725070e-03	5.174960e-07	1	true
17.9195       	DICPCG	2.064800e-03	7.438600e-07	1	true
18.0165       	DICPCG	2.475850e-03	2.812350e-10	2	true
18.1329       	DICPCG	2.952240e-03	4.799810e-10	2	true
18.2731       	DICPCG	3.527710e-03	8.254610e-10	2	true
18.4371       	DICPCG	4.093910e-03	1.303470e-09	2	true
18.5126       	DICPCG	1.875210e-03	6.337410e-07	1	true
18.5378       	DICPCG	6.268080e-04	7.117940e-08	1	true
18.5681       	DICPCG	7.520810e-04	1.026010e-07	1	true
18.6045       	DICPCG	8.989940e-04	1.468180e-07	1	true
18.648        	DICPCG	1.073790e-03	2.098330e-07	1	true
18.7001       	DICPCG	1.281410e-03	2.994480e-07	1	true
18.7624       	DICPCG	1.530020e-03	4.279820e-07	1	true
18.8376       	DICPCG	1.836050e-03	6.181290e-07	1	true
18.9282       	DICPCG	2.203500e-03	8.934510e-07	1	true
19.0366       	DICPCG	2.621450e-03	3.714520e-10	2	true
19.1663       	DICPCG	3.113410e-03	6.266930e-10	2	true
19.3198       	DICPCG	3.658080e-03	1.025350e-09	2	true
19.503        	DICPCG	4.325740e-03	1.712480e-09	2	true
19.7229       	DICPCG	5.133810e-03	2.914410e-09	2	true
19.8376       	DICPCG	2.665440e-03	4.225260e-10	2	true
19.8605       	DICPCG	5.305020e-04	5.452560e-08	1	true
19.8871       	DICPCG	6.176390e-04	7.398770e-08	1	true
19.9183       	DICPCG	7.219740e-04	1.012190e-07	1	true
19.9554       	DICPCG	8.574190e-04	1.429580e-07	1	true
19.9996       	DICPCG	1.020670e-03	2.029060e-07	1	true
20.0522       	DICPCG	1.210930e-03	2.861600e-07	1	true
20.1149       	DICPCG	1.436470e-03	4.036050e-07	1	true
20.1889       	DICPCG	1.691540e-03	5.612040e-07	1	true
20.2748       	DICPCG	1.955270e-03	7.522870e-07	1	true
20.3733       	DICPCG	2.229840e-03	9.821410e-07	1	true
20.4861       	DICPCG	2.542420e-03	3.908370e-10	2	true
20.6151       	DICPCG	2.887860e-03	5.773090e-10	2	true
20.7612       	DICPCG	3.250360e-03	8.307780e-10	2	true
20.9126       	DICPCG	3.343000e-03	9.155730e-10	2	true
20.9221       	DICPCG	2.086170e-04	8.876300e-09	1	true
20.9334       	DICPCG	2.501940e-04	1.277290e-08	1	true
20.947        	DICPCG	3.001890e-04	1.839790e-08	1	true
20.9633       	DICPCG	3.604070e-04	2.653730e-08	1	true
20.9829       	DICPCG	4.317020e-04	3.810560e-08	1	true
21.0064       	DICPCG	5.169080e-04	5.468530e-08	1	true
21.0345       	DICPCG	6.179320e-04	7.824080e-08	1	true
21.0681       	DICPCG	7.370840e-04	1.114800e-07	1	true
21.1083       	DICPCG	8.781420e-04	1.584990e-07	1	true
21.1563       	DICPCG	1.048940e-03	2.266080e-07	1	true
21.2137       	DICPCG	1.248680e-03	3.218960e-07	1	true
21.2825       	DICPCG	1.492960e-03	4.614710e-07	1	true
21.3651       	DICPCG	1.783780e-03	6.609690e-07	1	true
21.4634       	DICPCG	2.110410e-03	9.288610e-07	1	true
21.5813       	DICPCG	2.517280e-03	4.234580e-10	2	true
21.7237       	DICPCG	3.020140e-03	7.368090e-10	2	true
21.8875       	DICPCG	3.446110e-03	1.105150e-09	2	true
21.9169       	DICPCG	6.176940e-04	8.168440e-08	1	true
21.9504       	DICPCG	7.038800e-04	1.062030e-07	1	true
21.99         	DICPCG	8.303310e-04	1.479960e-07	1	true
22.037        	DICPCG	9.838750e-04	2.081300e-07	1	true
22.0929       	DICPCG	1.166510e-03	2.931320e-07	1	true
22.159        	DICPCG	1.374450e-03	4.078690e-07	1	true
22.2379       	DICPCG	1.635820e-03	5.792520e-07	1	true
22.3332       	DICPCG	1.965760e-03	8.390470e-07	1	true
22.4443       	DICPCG	2.282040e-03	3.418390e-10	2	true
22.5788       	DICPCG	2.745940e-03	5.989270e-10	2	true
22.7301       	DICPCG	3.068750e-03	8.433430e-10	2	true
22.7538       	DICPCG	4.797000e-04	5.109370e-08	1	true
22.7822       	DICPCG	5.761440e-04	7.376480e-08	1	true
22.8163       	DICPCG	6.903510e-04	1.060130e-07	1	true
22.8575       	DICPCG	8.321420e-04	1.542180e-07	1	true
22.9073       	DICPCG	1.004140e-03	2.248840e-07	1	true
22.9671       	DICPCG	1.201880e-03	3.227390e-07	1	true
23.0397       	DICPCG	1.454870e-03	4.739120e-07	1	true
23.125        	DICPCG	1.701730e-03	6.500880e-07	1	true
23.2291       	DICPCG	2.070640e-03	9.654390e-07	1	true
23.3556       	DICPCG	2.500870e-03	4.831080e-10	2	true
23.5051       	DICPCG	2.937090e-03	7.879990e-10	2	true
23.692        	DICPCG	3.642510e-03	1.513400e-09	2	true
23.7316       	DICPCG	7.728270e-04	1.378130e-07	1	true
23.7769       	DICPCG	8.815610e-04	1.796050e-07	1	true
23.8301       	DICPCG	1.032550e-03	2.468340e-07	1	true
23.8951       	DICPCG	1.258550e-03	3.674530e-07	1	true
23.974        	DICPCG	1.523140e-03	5.395260e-07	1	true
24.0673       	DICPCG	1.793080e-03	7.499890e-07	1	true
24.1709       	DICPCG	1.983900e-03	9.214200e-07	1	true
24.2463       	DICPCG	1.438830e-03	4.871020e-07	1	true
24.2805       	DICPCG	6.534390e-04	1.008470e-07	1	true
24.3205       	DICPCG	7.610320e-04	1.369690e-07	1	true
24.3691       	DICPCG	9.221600e-04	2.013970e-07	1	true
24.4264       	DICPCG	1.087160e-03	2.804060e-07	1	true
24.4981       	DICPCG	1.354760e-03	4.362960e-07	1	true
24.5818       	DICPCG	1.575040e-03	5.912140e-07	1	true
24.6863       	DICPCG	1.960150e-03	9.182380e-07	1	true
24.8432       	DICPCG	2.920100e-03	8.660590e-10	2	true
25            	DICPCG	2.902210e-03	8.607260e-10	2	true
25.1799       	DICPCG	3.304580e-03	1.281810e-09	2	true
25.2367       	DICPCG	1.042090e-03	2.658790e-07	1	true
25.2762       	DICPCG	7.245820e-04	1.289670e-07	1	true
25.3217       	DICPCG	8.319990e-04	1.703590e-07	1	true
25.3763       	DICPCG	9.951560e-04	2.441970e-07	1	true
25.4418       	DICPCG	1.190070e-03	3.499260e-07	1	true
25.5203       	DICPCG	1.421050e-03	5.000790e-07	1	true
25.6144       	DICPCG	1.698360e-03	7.160430e-07	1	true
25.7263       	DICPCG	2.008610e-03	3.057910e-10	2	true
25.7707       	DICPCG	7.961700e-04	1.586570e-07	1	true
25.8239       	DICPCG	9.534900e-04	2.277810e-07	1	true
25.8856       	DICPCG	1.101570e-03	3.044630e-07	1	true
25.9596       	DICPCG	1.317540e-03	4.362440e-07	1	true
26.0464       	DICPCG	1.540480e-03	5.976810e-07	1	true
26.1164       	DICPCG	1.240590e-03	3.888870e-07	1	true
26.1582       	DICPCG	7.386530e-04	1.382950e-07	1	true
26.2082       	DICPCG	8.843810e-04	1.985090e-07	1	true
26.2683       	DICPCG	1.058320e-03	2.847300e-07	1	true
26.3405       	DICPCG	1.267160e-03	4.089660e-07	1	true
26.4271       	DICPCG	1.517460e-03	5.878300e-07	1	true
26.531        	DICPCG	1.811350e-03	8.398310e-07	1	true
26.6558       	DICPCG	2.167360e-03	4.072050e-10	2	true
26.8017       	DICPCG	2.519710e-03	6.438650e-10	2	true
26.8399       	DICPCG	6.591010e-04	1.128330e-07	1	true
26.8856       	DICPCG	7.893490e-04	1.620370e-07	1	true
26.9405       	DICPCG	9.448830e-04	2.325500e-07	1	true
27.0064       	DICPCG	1.131100e-03	3.338630e-07	1	true
27.0854       	DICPCG	1.352550e-03	4.784660e-07	1	true
27.1801       	DICPCG	1.615160e-03	6.841220e-07	1	true
27.2937       	DICPCG	1.928410e-03	9.783510e-07	1	true
27.4296       	DICPCG	2.297920e-03	5.135230e-10	2	true
27.5442       	DICPCG	1.928620e-03	9.876930e-07	1	true
27.5539       	DICPCG	1.635030e-04	7.140900e-09	1	true
27.5654       	DICPCG	1.935390e-04	1.000980e-08	1	true
27.5791       	DICPCG	2.316270e-04	1.434420e-08	1	true
27.5956       	DICPCG	2.778470e-04	2.065170e-08	1	true
27.6155       	DICPCG	3.331190e-04	2.970490e-08	1	true
27.6392       	DICPCG	3.992480e-04	4.270150e-08	1	true
27.6677       	DICPCG	4.786970e-04	6.144060e-08	1	true
27.7019       	DICPCG	5.732810e-04	8.820720e-08	1	true
27.743        	DICPCG	6.873380e-04	1.269440e-07	1	true
27.7922       	DICPCG	8.227410e-04	1.821310e-07	1	true
27.8513       	DICPCG	9.847730e-04	2.613470e-07	1	true
27.9221       	DICPCG	1.176880e-03	3.739540e-07	1	true
28.007        	DICPCG	1.408020e-03	5.364440e-07	1	true
28.1088       	DICPCG	1.682290e-03	7.677700e-07	1	true
28.2311       	DICPCG	2.012000e-03	3.673230e-10	2	true
28.3762       	DICPCG	2.375560e-03	6.082400e-10	2	true
28.4773       	DICPCG	1.649830e-03	7.474360e-07	1	true
28.5156       	DICPCG	6.262910e-04	1.081840e-07	1	true
28.5589       	DICPCG	7.046340e-04	1.371060e-07	1	true
28.6108       	DICPCG	8.447470e-04	1.972970e-07	1	true
28.6731       	DICPCG	1.012520e-03	2.838680e-07	1	true
28.748        	DICPCG	1.211960e-03	4.074180e-07	1	true
28.8376       	DICPCG	1.447930e-03	5.827130e-07	1	true
28.9451       	DICPCG	1.728370e-03	8.323240e-07	1	true
29.0742       	DICPCG	2.069260e-03	4.216480e-10	2	true
29.2292       	DICPCG	2.470390e-03	7.211620e-10	2	true
29.2969       	DICPCG	1.077540e-03	3.276430e-07	1	true
29.3173       	DICPCG	3.245930e-04	2.981890e-08	1	true
29.3417       	DICPCG	3.891110e-04	4.287590e-08	1	true
29.3711       	DICPCG	4.665830e-04	6.169150e-08	1	true
29.4063       	DICPCG	5.590820e-04	8.864990e-08	1	true
29.4485       	DICPCG	6.692700e-04	1.271630e-07	1	true
29.4991       	DICPCG	8.014450e-04	1.825690e-07	1	true
29.5597       	DICPCG	9.583840e-04	2.614470e-07	1	true
29.6325       	DICPCG	1.146610e-03	3.748770e-07	1	true
29.7199       	DICPCG	1.373910e-03	5.393580e-07	1	true
29.825        	DICPCG	1.645790e-03	7.758810e-07	1	true
29.9511       	DICPCG	1.966710e-03	3.826660e-10	2	true
30.1018       	DICPCG	2.339490e-03	6.478810e-10	2	true
30.2827       	DICPCG	2.790650e-03	1.107350e-09	2	true
30.4256       	DICPCG	2.195950e-03	5.477820e-10	2	true
30.4385       	DICPCG	1.992140e-04	1.163860e-08	1	true
30.4534       	DICPCG	2.285930e-04	1.533010e-08	1	true
30.4704       	DICPCG	2.623580e-04	2.020090e-08	1	true
30.4902       	DICPCG	3.038560e-04	2.710790e-08	1	true
30.5132       	DICPCG	3.525810e-04	3.651460e-08	1	true
30.5398       	DICPCG	4.097260e-04	4.933380e-08	1	true
30.5709       	DICPCG	4.759440e-04	6.660400e-08	1	true
30.6069       	DICPCG	5.521910e-04	8.970750e-08	1	true
30.6487       	DICPCG	6.394990e-04	1.204000e-07	1	true
30.6971       	DICPCG	7.392230e-04	1.610070e-07	1	true
30.7531       	DICPCG	8.535810e-04	2.148850e-07	1	true
30.8176       	DICPCG	9.835640e-04	2.856430e-07	1	true
30.8923       	DICPCG	1.134280e-03	3.804110e-07	1	true
30.9787       	DICPCG	1.310740e-03	5.087980e-07	1	true
31.0789       	DICPCG	1.513430e-03	6.796270e-07	1	true
31.1949       	DICPCG	1.749090e-03	9.098150e-07	1	true
31.3302       	DICPCG	2.030670e-03	4.547630e-10	2	true
31.4845       	DICPCG	2.305870e-03	6.695130e-10	2	true
31.5675       	DICPCG	1.239670e-03	4.621640e-07	1	true
31.5935       	DICPCG	3.882850e-04	4.548590e-08	1	true
31.6239       	DICPCG	4.524700e-04	6.180330e-08	1	true
31.66         	DICPCG	5.391640e-04	8.781170e-08	1	true
31.7034       	DICPCG	6.453810e-04	1.259170e-07	1	true
31.7554       	DICPCG	7.725270e-04	1.805830e-07	1	true
31.8176       	DICPCG	9.237580e-04	2.584940e-07	1	true
31.8916       	DICPCG	1.094160e-03	3.631510e-07	1	true
31.9786       	DICPCG	1.285620e-03	5.021900e-07	1	true
32.081        	DICPCG	1.507640e-03	6.920500e-07	1	true
32.2005       	DICPCG	1.752950e-03	9.379520e-07	1	true
32.3406       	DICPCG	2.048400e-03	4.928490e-10	2	true
32.5012       	DICPCG	2.335660e-03	7.352660e-10	2	true
32.6694       	DICPCG	2.436920e-03	8.422720e-10	2	true
32.6937       	DICPCG	3.517190e-04	3.845120e-08	1	true
32.7218       	DICPCG	4.085740e-04	5.191950e-08	1	true
32.755        	DICPCG	4.801300e-04	7.175240e-08	1	true
32.7941       	DICPCG	5.653220e-04	9.957150e-08	1	true
32.8399       	DICPCG	6.604560e-04	1.360660e-07	1	true
32.8932       	DICPCG	7.677190e-04	1.841160e-07	1	true
32.9552       	DICPCG	8.909900e-04	2.484080e-07	1	true
33.0274       	DICPCG	1.035700e-03	3.363110e-07	1	true
33.1114       	DICPCG	1.201590e-03	4.536910e-07	1	true
33.2096       	DICPCG	1.399750e-03	6.172550e-07	1	true
33.3246       	DICPCG	1.633520e-03	8.430880e-07	1	true
33.4591       	DICPCG	1.902330e-03	4.213110e-10	2	true
33.6181       	DICPCG	2.239260e-03	6.916200e-10	2	true
33.7962       	DICPCG	2.493880e-03	9.639100e-10	2	true
33.8218       	DICPCG	3.599500e-04	4.169020e-08	1	true
33.8523       	DICPCG	4.273450e-04	5.880770e-08	1	true
33.8888       	DICPCG	5.118340e-04	8.443310e-08	1	true
33.9326       	DICPCG	6.125150e-04	1.210230e-07	1	true
33.9844       	DICPCG	7.239420e-04	1.692110e-07	1	true
34.0453       	DICPCG	8.489370e-04	2.328930e-07	1	true
34.1166       	DICPCG	9.907660e-04	3.174960e-07	1	true
34.1997       	DICPCG	1.153850e-03	4.310300e-07	1	true
34.2966       	DICPCG	1.341020e-03	5.829110e-07	1	true
34.4088       	DICPCG	1.546560e-03	7.764590e-07	1	true
34.5387       	DICPCG	1.784550e-03	3.667910e-10	2	true
34.6888       	DICPCG	2.052580e-03	5.604910e-10	2	true
34.8609       	DICPCG	2.340060e-03	8.356690e-10	2	true
34.9561       	DICPCG	1.294050e-03	5.508040e-07	1	true
34.9783       	DICPCG	3.021390e-04	3.015110e-08	1	true
35.005        	DICPCG	3.623410e-04	4.341400e-08	1	true
35.037        	DICPCG	4.344950e-04	6.250620e-08	1	true
35.0755       	DICPCG	5.207800e-04	8.991540e-08	1	true
35.1217       	DICPCG	6.244340e-04	1.294450e-07	1	true
35.1772       	DICPCG	7.486850e-04	1.863470e-07	1	true
35.2437       	DICPCG	8.942630e-04	2.662670e-07	1	true
35.3235       	DICPCG	1.070130e-03	3.819630e-07	1	true
35.4194       	DICPCG	1.282750e-03	5.499510e-07	1	true
35.5342       	DICPCG	1.529410e-03	7.836930e-07	1	true
35.672        	DICPCG	1.826960e-03	4.213350e-10	2	true
35.8367       	DICPCG	2.172730e-03	7.127520e-10	2	true
36.0182       	DICPCG	2.383340e-03	9.469820e-10	2	true
36.0426       	DICPCG	3.200360e-04	3.487270e-08	1	true
36.0705       	DICPCG	3.671020e-04	4.591440e-08	1	true
36.1031       	DICPCG	4.286140e-04	6.262990e-08	1	true
36.1415       	DICPCG	5.038720e-04	8.660840e-08	1	true
36.1871       	DICPCG	5.976440e-04	1.219160e-07	1	true
36.2414       	DICPCG	7.119730e-04	1.731260e-07	1	true
36.3067       	DICPCG	8.523460e-04	2.482860e-07	1	true
36.3845       	DICPCG	1.015140e-03	3.524680e-07	1	true
36.4765       	DICPCG	1.197790e-03	4.912370e-07	1	true
36.5846       	DICPCG	1.405100e-03	6.769930e-07	1	true
36.7112       	DICPCG	1.638760e-03	9.228850e-07	1	true
36.8572       	DICPCG	1.884290e-03	4.827860e-10	2	true
37.0257       	DICPCG	2.164980e-03	7.370260e-10	2	true
37.0622       	DICPCG	4.692540e-04	7.659880e-08	1	true
37.1059       	DICPCG	5.621720e-04	1.100170e-07	1	true
37.1583       	DICPCG	6.732300e-04	1.579250e-07	1	true
37.2212       	DICPCG	8.072180e-04	2.272940e-07	1	true
37.2969       	DICPCG	9.676940e-04	3.271030e-07	1	true
37.3876       	DICPCG	1.158460e-03	4.695880e-07	1	true
37.4963       	DICPCG	1.384090e-03	6.718050e-07	1	true
37.6266       	DICPCG	1.652140e-03	9.598800e-07	1	true
37.7832       	DICPCG	1.977950e-03	5.864420e-10	2	true
37.9236       	DICPCG	1.767950e-03	4.230410e-10	2	true
37.9476       	DICPCG	3.022080e-04	3.254510e-08	1	true
37.9763       	DICPCG	3.624140e-04	4.685340e-08	1	true
38.0109       	DICPCG	4.347470e-04	6.751020e-08	1	true
38.0524       	DICPCG	5.211960e-04	9.717330e-08	1	true
38.1022       	DICPCG	6.242980e-04	1.396640e-07	1	true
38.162        	DICPCG	7.481770e-04	2.009920e-07	1	true
38.2337       	DICPCG	8.955480e-04	2.886420e-07	1	true
38.3196       	DICPCG	1.068880e-03	4.122760e-07	1	true
38.423        	DICPCG	1.281920e-03	5.948080e-07	1	true
38.5474       	DICPCG	1.537430e-03	8.585430e-07	1	true
38.6962       	DICPCG	1.827990e-03	4.976600e-10	2	true
38.8701       	DICPCG	2.125650e-03	7.893470e-10	2	true
38.9669       	DICPCG	1.181150e-03	5.136040e-07	1	true
38.986        	DICPCG	2.335450e-04	2.015990e-08	1	true
39.0087       	DICPCG	2.770290e-04	2.840180e-08	1	true
39.036        	DICPCG	3.322530e-04	4.091060e-08	1	true
39.0687       	DICPCG	3.980800e-04	5.881450e-08	1	true
39.1077       	DICPCG	4.740270e-04	8.352550e-08	1	true
39.1541       	DICPCG	5.617010e-04	1.174680e-07	1	true
39.2091       	DICPCG	6.657820e-04	1.653090e-07	1	true
39.2749       	DICPCG	7.937980e-04	2.354100e-07	1	true
39.3538       	DICPCG	9.488450e-04	3.370130e-07	1	true
39.4489       	DICPCG	1.140230e-03	4.877800e-07	1	true
39.5623       	DICPCG	1.356350e-03	6.920290e-07	1	true
39.6979       	DICPCG	1.614380e-03	9.834270e-07	1	true
39.8564       	DICPCG	1.879780e-03	5.846450e-10	2	true
39.9081       	DICPCG	6.143790e-04	1.436680e-07	1	true
39.9407       	DICPCG	3.863170e-04	5.689490e-08	1	true
39.9788       	DICPCG	4.516350e-04	7.784150e-08	1	true
40.0245       	DICPCG	5.416290e-04	1.120840e-07	1	true
40.0793       	DICPCG	6.476990e-04	1.605080e-07	1	true
40.145        	DICPCG	7.748790e-04	2.301040e-07	1	true
40.2239       	DICPCG	9.277150e-04	3.304540e-07	1	true
40.3188       	DICPCG	1.113800e-03	4.773530e-07	1	true
40.4327       	DICPCG	1.332230e-03	6.846130e-07	1	true
40.5694       	DICPCG	1.592610e-03	9.810090e-07	1	true
40.732        	DICPCG	1.886010e-03	6.189140e-10	2	true
40.7818       	DICPCG	5.787880e-04	1.305800e-07	1	true
40.8243       	DICPCG	4.929390e-04	9.481640e-08	1	true
40.8752       	DICPCG	5.906930e-04	1.362500e-07	1	true
40.9365       	DICPCG	7.083860e-04	1.961290e-07	1	true
41.0102       	DICPCG	8.506580e-04	2.831170e-07	1	true
41.0983       	DICPCG	1.015030e-03	4.036310e-07	1	true
41.2043       	DICPCG	1.217050e-03	5.812050e-07	1	true
41.3318       	DICPCG	1.458990e-03	8.369730e-07	1	true
41.4787       	DICPCG	1.675380e-03	4.467850e-10	2	true
41.5355       	DICPCG	6.481240e-04	1.663200e-07	1	true
41.5803       	DICPCG	5.105600e-04	1.033660e-07	1	true
41.6319       	DICPCG	5.879020e-04	1.372340e-07	1	true
41.6939       	DICPCG	7.042410e-04	1.971620e-07	1	true
41.7681       	DICPCG	8.407770e-04	2.814170e-07	1	true
41.8566       	DICPCG	1.001130e-03	3.995680e-07	1	true
41.9623       	DICPCG	1.192710e-03	5.680650e-07	1	true
42.0899       	DICPCG	1.434190e-03	8.227070e-07	1	true
42.2392       	DICPCG	1.670990e-03	4.611100e-10	2	true
42.2716       	DICPCG	3.643250e-04	5.343700e-08	1	true
42.3083       	DICPCG	4.105530e-04	6.789810e-08	1	true
42.3522       	DICPCG	4.921700e-04	9.762400e-08	1	true
42.405        	DICPCG	5.898610e-04	1.403190e-07	1	true
42.4683       	DICPCG	7.067900e-04	2.016340e-07	1	true
42.5443       	DICPCG	8.480390e-04	2.906100e-07	1	true
42.6353       	DICPCG	1.011330e-03	4.139210e-07	1	true
42.7452       	DICPCG	1.219390e-03	6.029280e-07	1	true
42.8771       	DICPCG	1.458560e-03	8.648600e-07	1	true
43.0354       	DICPCG	1.743400e-03	5.398290e-10	2	true
43.1308       	DICPCG	1.050250e-03	4.518310e-07	1	true
43.1632       	DICPCG	3.569270e-04	5.234120e-08	1	true